
.Version 5.3.4  of ABINIT 
.(sequential version, prepared for a i686_linux_UNKNOWN computer) 

.Copyright (C) 1998-2007 ABINIT group . 
 ABINIT comes with ABSOLUTELY NO WARRANTY.
 It is free software, and you are welcome to redistribute it
 under certain conditions (GNU General Public License,
 see ~abinit/COPYING or http://www.gnu.org/copyleft/gpl.txt).

 ABINIT is a project of the Universite Catholique de Louvain,
 Corning Inc. and other collaborators, see ~abinit/doc/developers/contributors.txt .
 Please read ~abinit/doc/users/acknowledgments.html for suggested
 acknowledgments of the ABINIT effort.
 For more information, see http://www.abinit.org .

.Starting date : Mon 21 Jul 2014.
  
- input  file    -> ice-1H.inp
- output file    -> ice-1H.out
- root for input  files -> ice-1Hi
- root for output files -> ice-1Ho


 Symmetries : space group P6_3 c m (#185); Bravais hP (primitive hexag.)
================================================================================
 Values of the parameters that define the memory need of the present run
   intxc =         0  ionmov =         0    iscf =         7     ixc =         1
  lmnmax =         1   lnmax =         1   mband =        53  mffmem =         1
P  mgfft =        45   mkmem =         1 mpssoang=         2     mpw =      2008
  mqgrid =      3001   natom =        36    nfft =     81000    nkpt =         1
  nloalg =         4  nspden =         1 nspinor =         1  nsppol =         1
    nsym =        12  n1xccc =      2501  ntypat =         2  occopt =         1
================================================================================
P This job should need less than                      25.729 Mbytes of memory.
  Rough estimation (10% accuracy) of disk space for files :
  WF disk file :      1.626 Mbytes ; DEN or POT disk file :      0.620 Mbytes.
================================================================================

 -outvars: echo values of preprocessed input variables --------
     acell    1.4777658102E+01  1.4777658102E+01  1.4777658102E+01 Bohr
       amu    1.59994000E+01  1.00794000E+00
      ecut    1.00000000E+01 Hartree
    istwfk      2
P    mkmem         1
     natom        36
     nband        53
     ngfft        45      45      40
      nkpt         1
      nsym        12
    ntypat         2
       occ    2.000000  2.000000  2.000000  2.000000  2.000000  2.000000
              2.000000  2.000000  2.000000  2.000000  2.000000  2.000000
              2.000000  2.000000  2.000000  2.000000  2.000000  2.000000
              2.000000  2.000000  2.000000  2.000000  2.000000  2.000000
              2.000000  2.000000  2.000000  2.000000  2.000000  2.000000
              2.000000  2.000000  2.000000  2.000000  2.000000  2.000000
              2.000000  2.000000  2.000000  2.000000  2.000000  2.000000
              2.000000  2.000000  2.000000  2.000000  2.000000  2.000000
              0.000000  0.000000  0.000000  0.000000  0.000000
     rprim    8.6602540378E-01 -5.0000000000E-01  0.0000000000E+00
              0.0000000000E+00  1.0000000000E+00  0.0000000000E+00
              0.0000000000E+00  0.0000000000E+00  9.4117647059E-01
   spgroup       185
    symrel    1  0  0   0  1  0   0  0  1       0  1  0   1  0  0   0  0  1
              1  1  0  -1  0  0   0  0  1      -1  0  0   1  1  0   0  0  1
              0  1  0  -1 -1  0   0  0  1      -1 -1  0   0  1  0   0  0  1
             -1  0  0   0 -1  0   0  0  1       0 -1  0  -1  0  0   0  0  1
             -1 -1  0   1  0  0   0  0  1       1  0  0  -1 -1  0   0  0  1
              0 -1  0   1  1  0   0  0  1       1  1  0   0 -1  0   0  0  1
     tnons    0.0000000  0.0000000  0.0000000    -0.0000000  0.0000000  0.0000000
              0.0000000  0.0000000  0.5000000     0.0000000  0.0000000  0.5000000
              0.0000000  0.0000000  0.0000000     0.0000000  0.0000000  0.0000000
              0.0000000  0.0000000  0.5000000     0.0000000  0.0000000  0.5000000
              0.0000000  0.0000000  0.0000000     0.0000000  0.0000000  0.0000000
             -0.0000000  0.0000000  0.5000000     0.0000000  0.0000000  0.5000000
    toldfe    1.00000000E-06 Hartree
     typat    1  1  1  1  1  1  1  1  1  1  1  1  2  2  2  2  2  2  2  2
              2  2  2  2  2  2  2  2  2  2  2  2  2  2  2  2
    xangst    2.2574395227E+00 -1.3033333161E+00  4.5999999392E-01
              4.5148790453E+00 -2.6066666322E+00  4.1399999452E+00
              0.0000000000E+00  5.2133332644E+00  4.1399999452E+00
              2.2574395227E+00  1.3033333161E+00  4.1399999452E+00
              0.0000000000E+00  2.6066666322E+00  4.5999999392E-01
              4.5148790453E+00  2.6066666322E+00  4.5999999392E-01
              4.5148790453E+00 -2.6066666322E+00  6.8999999087E+00
              2.2574395227E+00 -1.3033333161E+00  3.2199999574E+00
              0.0000000000E+00  2.6066666322E+00  3.2199999574E+00
              4.5148790453E+00  2.6066666322E+00  3.2199999574E+00
              0.0000000000E+00  5.2133332644E+00  6.8999999087E+00
              2.2574395227E+00  1.3033333161E+00  6.8999999087E+00
              2.2574395227E+00 -1.3033333161E+00  1.2806399831E+00
              4.5148790453E+00 -2.6066666322E+00  4.9606399344E+00
              0.0000000000E+00  5.2133332644E+00  4.9606399344E+00
              2.2574395227E+00  1.3033333161E+00  4.9606399344E+00
              0.0000000000E+00  2.6066666322E+00  1.2806399831E+00
              4.5148790453E+00  2.6066666322E+00  1.2806399831E+00
              2.9662755328E+00 -1.7125799773E+00  1.9135999747E-01
              3.8060430352E+00 -2.1974199709E+00  3.8713599488E+00
              0.0000000000E+00  4.3948399419E+00  3.8713599488E+00
              2.9662755328E+00  1.7125799773E+00  3.8713599488E+00
              0.0000000000E+00  3.4251599547E+00  1.9135999747E-01
              3.8060430352E+00  2.1974199709E+00  1.9135999747E-01
              5.2282299345E+00 -2.1974199709E+00  7.1759999051E+00
              1.5440886335E+00  6.1074199192E+00  3.4959999538E+00
              4.5171364849E+00  4.3909299419E+00  7.1759999051E+00
              6.0612251184E+00 -1.7164899773E+00  3.4959999538E+00
              4.5171364849E+00  3.4290699546E+00  3.4959999538E+00
              7.1109344964E-01  5.6264899256E+00  7.1759999051E+00
              7.1109344964E-01  2.1935099710E+00  3.4959999538E+00
              2.2551820832E+00  4.8092999364E-01  7.1759999051E+00
              6.0612251184E+00  1.7164899773E+00  7.1759999051E+00
              2.2551820832E+00 -4.8092999364E-01  3.4959999538E+00
              1.5440886335E+00  1.7125799773E+00  7.1759999051E+00
              5.2282299345E+00  2.1974199709E+00  3.4959999538E+00
     xcart    4.2659424416E+00 -2.4629430170E+00  8.6927400600E-01
              8.5318848832E+00 -4.9258860340E+00  7.8234660540E+00
              0.0000000000E+00  9.8517720680E+00  7.8234660540E+00
              4.2659424416E+00  2.4629430170E+00  7.8234660540E+00
              0.0000000000E+00  4.9258860340E+00  8.6927400600E-01
              8.5318848832E+00  4.9258860340E+00  8.6927400600E-01
              8.5318848832E+00 -4.9258860340E+00  1.3039110090E+01
              4.2659424416E+00 -2.4629430170E+00  6.0849180420E+00
              0.0000000000E+00  4.9258860340E+00  6.0849180420E+00
              8.5318848832E+00  4.9258860340E+00  6.0849180420E+00
              0.0000000000E+00  9.8517720680E+00  1.3039110090E+01
              4.2659424416E+00  2.4629430170E+00  1.3039110090E+01
              4.2659424416E+00 -2.4629430170E+00  2.4200588327E+00
              8.5318848832E+00 -4.9258860340E+00  9.3742508807E+00
              0.0000000000E+00  9.8517720680E+00  9.3742508807E+00
              4.2659424416E+00  2.4629430170E+00  9.3742508807E+00
              0.0000000000E+00  4.9258860340E+00  2.4200588327E+00
              8.5318848832E+00  4.9258860340E+00  2.4200588327E+00
              5.6054483683E+00 -3.2363071243E+00  3.6161798650E-01
              7.1923789565E+00 -4.1525219267E+00  7.3158100345E+00
              0.0000000000E+00  8.3050438533E+00  7.3158100345E+00
              5.6054483683E+00  3.2363071243E+00  7.3158100345E+00
              0.0000000000E+00  6.4726142487E+00  3.6161798650E-01
              7.1923789565E+00  4.1525219267E+00  3.6161798650E-01
              9.8799226947E+00 -4.1525219267E+00  1.3560674494E+01
              2.9179046300E+00  1.1541350978E+01  6.6064824456E+00
              8.5361508256E+00  8.2976550243E+00  1.3560674494E+01
              1.1454055456E+01 -3.2436959534E+00  6.6064824456E+00
              8.5361508256E+00  6.4800030777E+00  6.6064824456E+00
              1.3437718691E+00  1.0632525004E+01  1.3560674494E+01
              1.3437718691E+00  4.1451330976E+00  6.6064824456E+00
              4.2616764991E+00  9.0882597327E-01  1.3560674494E+01
              1.1454055456E+01  3.2436959534E+00  1.3560674494E+01
              4.2616764991E+00 -9.0882597327E-01  6.6064824456E+00
              2.9179046300E+00  3.2363071243E+00  1.3560674494E+01
              9.8799226947E+00  4.1525219267E+00  6.6064824456E+00
      xred    3.3333333333E-01  7.2912596100E-18  6.2500000000E-02
              6.6666666667E-01  1.9569849213E-17  5.6250000000E-01
              0.0000000000E+00  6.6666666667E-01  5.6250000000E-01
              3.3333333333E-01  3.3333333333E-01  5.6250000000E-01
              0.0000000000E+00  3.3333333333E-01  6.2500000000E-02
              6.6666666667E-01  6.6666666667E-01  6.2500000000E-02
              6.6666666667E-01  1.9569849213E-17  9.3750000000E-01
              3.3333333333E-01  7.2912596100E-18  4.3750000000E-01
              0.0000000000E+00  3.3333333333E-01  4.3750000000E-01
              6.6666666667E-01  6.6666666667E-01  4.3750000000E-01
              0.0000000000E+00  6.6666666667E-01  9.3750000000E-01
              3.3333333333E-01  3.3333333333E-01  9.3750000000E-01
              3.3333333333E-01  7.2912596100E-18  1.7400000000E-01
              6.6666666667E-01  1.9569849213E-17  6.7400000000E-01
              0.0000000000E+00  6.6666666667E-01  6.7400000000E-01
              3.3333333333E-01  3.3333333333E-01  6.7400000000E-01
              0.0000000000E+00  3.3333333333E-01  1.7400000000E-01
              6.6666666667E-01  6.6666666667E-01  1.7400000000E-01
              4.3800000000E-01  3.4220131069E-17  2.6000000000E-02
              5.6200000000E-01  3.6673138484E-17  5.2600000000E-01
              0.0000000000E+00  5.6200000000E-01  5.2600000000E-01
              4.3800000000E-01  4.3800000000E-01  5.2600000000E-01
              0.0000000000E+00  4.3800000000E-01  2.6000000000E-02
              5.6200000000E-01  5.6200000000E-01  2.6000000000E-02
              7.7200000000E-01  1.0500000000E-01  9.7500000000E-01
              2.2800000000E-01  8.9500000000E-01  4.7500000000E-01
              6.6700000000E-01  8.9500000000E-01  9.7500000000E-01
              8.9500000000E-01  2.2800000000E-01  4.7500000000E-01
              6.6700000000E-01  7.7200000000E-01  4.7500000000E-01
              1.0500000000E-01  7.7200000000E-01  9.7500000000E-01
              1.0500000000E-01  3.3300000000E-01  4.7500000000E-01
              3.3300000000E-01  2.2800000000E-01  9.7500000000E-01
              8.9500000000E-01  6.6700000000E-01  9.7500000000E-01
              3.3300000000E-01  1.0500000000E-01  4.7500000000E-01
              2.2800000000E-01  3.3300000000E-01  9.7500000000E-01
              7.7200000000E-01  6.6700000000E-01  4.7500000000E-01
     znucl      8.00000    1.00000

================================================================================

 chkinp: Checking input parameters for consistency.

================================================================================
== DATASET  1 ==================================================================

 Real(R)+Recip(G) space primitive vectors, cartesian coordinates (Bohr,Bohr^-1):
 R(1)= 12.7978273 -7.3888291  0.0000000  G(1)=  0.0781383  0.0000000  0.0000000
 R(2)=  0.0000000 14.7776581  0.0000000  G(2)=  0.0390691  0.0676697  0.0000000
 R(3)=  0.0000000  0.0000000 13.9083841  G(3)=  0.0000000  0.0000000  0.0718991
 Unit cell volume ucvol=  2.6303803E+03 bohr^3
 Angles (23,13,12)=  9.00000000E+01  9.00000000E+01  1.20000000E+02 degrees

 getcut: wavevector=  0.0000  0.0000  0.0000  ngfft=  45  45  40
         ecut(hartree)=     10.000   => boxcut(ratio)=   2.02031

--- Pseudopotential description ------------------------------------------------
- pspini: atom type   1  psp file is 8o.pspnc
- pspatm: opening atomic psp file    8o.pspnc
  Troullier-Martins psp for element  O         Thu Oct 27 17:29:57 EDT 1994
   8.00000   6.00000    940714                znucl, zion, pspdat
    1    1    1    1      2001   0.00000      pspcod,pspxc,lmax,lloc,mmax,r2well
    0   5.480  16.893    1   1.4482335        l,e99.0,e99.9,nproj,rcpsp
   0.00000000   0.00000000   0.00000000   0.00000000     rms, ekb1, ekb2, epsatm
    1  20.911  28.075    0   1.4482335        l,e99.0,e99.9,nproj,rcpsp
   0.00000000   0.00000000   0.00000000   0.00000000     rms, ekb1, ekb2, epsatm
    0.56990156784787    3.95561236318184    0.63894027514378   rchrg,fchrg,qchrg
 pspatm: epsatm=    1.57752239
         --- l  ekb(1:nproj) -->
             0    5.670783
 pspatm: atomic psp has been read  and splines computed

- pspini: atom type   2  psp file is 1h.pspnc
- pspatm: opening atomic psp file    1h.pspnc
  Troullier-Martins psp for element  H         Thu Oct 27 17:28:54 EDT 1994
   1.00000   1.00000    940714                znucl, zion, pspdat
    1    1    0    0      2001   0.00000      pspcod,pspxc,lmax,lloc,mmax,r2well
    0   7.740  11.990    0   1.5855604        l,e99.0,e99.9,nproj,rcpsp
   0.00000000   0.00000000   0.00000000   0.00000000     rms, ekb1, ekb2, epsatm
    0.00000000000000    0.00000000000000    0.00000000000000   rchrg,fchrg,qchrg
 Note: local psp for atom with Z=  1.0
 pspatm: epsatm=    0.04198703
         --- l  ekb(1:nproj) -->
 pspatm: atomic psp has been read  and splines computed

   1.91404391E+03                                ecore*ucvol(ha*bohr**3)
--------------------------------------------------------------------------------

P newkpt: treating     53 bands with npw=    2008 for ikpt=   1

 setup2: Arith. and geom. avg. npw (full set) are    4015.000    4015.000

================================================================================

     iter   Etot(hartree)      deltaE(h)  residm     vres2    diffor    maxfor
 ETOT  1  -199.99116526785    -2.000E+02 6.600E-02 4.913E+02 3.233E-01 3.233E-01
 ETOT  2  -200.87408647180    -8.829E-01 6.886E-05 2.404E+02 1.152E-01 2.394E-01
 ETOT  3  -201.32425423366    -4.502E-01 1.159E-03 2.177E+00 3.899E-02 2.723E-01
 ETOT  4  -201.32586496330    -1.611E-03 5.331E-04 1.752E-01 3.195E-03 2.751E-01
 ETOT  5  -201.32588185545    -1.689E-05 1.356E-04 3.773E-02 6.841E-04 2.745E-01
 ETOT  6  -201.32589993945    -1.808E-05 1.339E-04 6.124E-03 5.507E-04 2.750E-01
 ETOT  7  -201.32590364018    -3.701E-06 2.325E-05 2.975E-04 2.045E-04 2.749E-01
 ETOT  8  -201.32590367635    -3.617E-08 2.007E-05 7.613E-05 1.771E-05 2.749E-01
 ETOT  9  -201.32590368223    -5.877E-09 3.294E-06 1.894E-05 3.550E-06 2.749E-01

 At SCF step    9, etot is converged :
  for the second time, diff in etot=  5.877E-09 < toldfe=  1.000E-06

 Cartesian components of stress tensor (hartree/bohr^3)
  sigma(1 1)=  3.95152108E-03  sigma(3 2)=  0.00000000E+00
  sigma(2 2)=  3.95152108E-03  sigma(3 1)=  0.00000000E+00
  sigma(3 3)=  3.75870329E-03  sigma(2 1)=  0.00000000E+00

================================================================================

 ----iterations are completed or convergence reached----

 Mean square residual over all n,k,spin=   6.3369E-08; max=  3.2939E-06
   0.0000  0.0000  0.0000    1  3.29394E-06 kpt; spin; max resid(k); each band:
 1.56E-11 9.73E-12 5.59E-12 5.59E-12 5.81E-12 5.81E-12 2.80E-11 2.80E-11
 2.84E-11 2.84E-11 2.67E-11 2.52E-11 4.57E-12 3.13E-12 1.68E-12 1.68E-12
 1.95E-12 1.95E-12 6.14E-12 6.41E-13 5.47E-13 5.47E-13 5.79E-13 5.80E-13
 2.21E-11 1.54E-11 7.68E-12 7.68E-12 1.47E-11 1.47E-11 1.00E-11 1.00E-11
 1.80E-11 1.80E-11 1.62E-11 1.45E-11 1.03E-11 1.03E-11 1.12E-11 1.12E-11
 4.97E-12 7.55E-13 9.54E-12 1.34E-11 5.33E-12 5.33E-12 6.56E-12 6.56E-12
 1.09E-10 3.76E-11 4.55E-09 5.94E-08 3.29E-06
 reduced coordinates (array xred) for   36 atoms
       0.333333333333      0.000000000000      0.062500000000
       0.666666666667      0.000000000000      0.562500000000
       0.000000000000      0.666666666667      0.562500000000
       0.333333333333      0.333333333333      0.562500000000
       0.000000000000      0.333333333333      0.062500000000
       0.666666666667      0.666666666667      0.062500000000
       0.666666666667      0.000000000000      0.937500000000
       0.333333333333      0.000000000000      0.437500000000
       0.000000000000      0.333333333333      0.437500000000
       0.666666666667      0.666666666667      0.437500000000
       0.000000000000      0.666666666667      0.937500000000
       0.333333333333      0.333333333333      0.937500000000
       0.333333333333      0.000000000000      0.174000000000
       0.666666666667      0.000000000000      0.674000000000
       0.000000000000      0.666666666667      0.674000000000
       0.333333333333      0.333333333333      0.674000000000
       0.000000000000      0.333333333333      0.174000000000
       0.666666666667      0.666666666667      0.174000000000
       0.438000000000      0.000000000000      0.026000000000
       0.562000000000      0.000000000000      0.526000000000
       0.000000000000      0.562000000000      0.526000000000
       0.438000000000      0.438000000000      0.526000000000
       0.000000000000      0.438000000000      0.026000000000
       0.562000000000      0.562000000000      0.026000000000
       0.772000000000      0.105000000000      0.975000000000
       0.228000000000      0.895000000000      0.475000000000
       0.667000000000      0.895000000000      0.975000000000
       0.895000000000      0.228000000000      0.475000000000
       0.667000000000      0.772000000000      0.475000000000
       0.105000000000      0.772000000000      0.975000000000
       0.105000000000      0.333000000000      0.475000000000
       0.333000000000      0.228000000000      0.975000000000
       0.895000000000      0.667000000000      0.975000000000
       0.333000000000      0.105000000000      0.475000000000
       0.228000000000      0.333000000000      0.975000000000
       0.772000000000      0.667000000000      0.475000000000
 rms dE/dt=  1.8219E+00; max dE/dt=  3.0328E+00; dE/dt below (all hartree)
    1       2.607400822027     -1.303700411013      3.032804507882
    2      -2.607400822027      1.303700411013      3.032804507882
    3       1.303700411013     -2.607400822027      3.032804507882
    4       1.303700411013      1.303700411013      3.032804507882
    5      -1.303700411013      2.607400822027      3.032804507882
    6      -1.303700411013     -1.303700411013      3.032804507882
    7       2.559784587380     -1.279892293690      1.710140376676
    8      -2.559784587380      1.279892293690      1.710140376676
    9       1.279892293690     -2.559784587380      1.710140376676
   10       1.279892293690      1.279892293690      1.710140376676
   11      -1.279892293690      2.559784587380      1.710140376676
   12      -1.279892293690     -1.279892293690      1.710140376676
   13      -0.047898868343      0.023949434172     -3.826072140260
   14       0.047898868343     -0.023949434172     -3.826072140260
   15      -0.023949434172      0.047898868343     -3.826072140260
   16      -0.023949434172     -0.023949434172     -3.826072140260
   17       0.023949434172     -0.047898868343     -3.826072140260
   18       0.023949434172      0.023949434172     -3.826072140260
   19      -2.586028028915      1.293014014457      0.737999019884
   20       2.586028028915     -1.293014014457      0.737999019884
   21      -1.293014014457      2.586028028915      0.737999019884
   22      -1.293014014457     -1.293014014457      0.737999019884
   23       1.293014014457     -2.586028028915      0.737999019884
   24       1.293014014457      1.293014014457      0.737999019884
   25      -1.277606145423     -1.065394050252     -0.834381860392
   26       1.277606145423      1.065394050252     -0.834381860392
   27      -1.277606145423      2.343000195675     -0.834381860392
   28       1.065394050252      1.277606145423     -0.834381860392
   29       1.065394050252     -2.343000195675     -0.834381860392
   30      -1.065394050252     -1.277606145423     -0.834381860392
   31      -2.343000195675      1.277606145423     -0.834381860392
   32      -1.065394050252      2.343000195675     -0.834381860392
   33       2.343000195675     -1.277606145423     -0.834381860392
   34       1.277606145423     -2.343000195675     -0.834381860392
   35       2.343000195675     -1.065394050252     -0.834381860392
   36      -2.343000195675      1.065394050252     -0.834381860392

 cartesian coordinates (angstrom) at end:
    1      2.25743952267445    -1.30333331609540     0.45999999391602
    2      4.51487904534891    -2.60666663219080     4.13999994524420
    3      0.00000000000000     5.21333326438159     4.13999994524420
    4      2.25743952267445     1.30333331609540     4.13999994524420
    5      0.00000000000000     2.60666663219079     0.45999999391602
    6      4.51487904534891     2.60666663219080     0.45999999391602
    7      4.51487904534891    -2.60666663219080     6.89999990874033
    8      2.25743952267445    -1.30333331609540     3.21999995741216
    9      0.00000000000000     2.60666663219079     3.21999995741216
   10      4.51487904534891     2.60666663219080     3.21999995741216
   11      0.00000000000000     5.21333326438159     6.89999990874033
   12      2.25743952267445     1.30333331609540     6.89999990874033
   13      2.25743952267445    -1.30333331609540     1.28063998306221
   14      4.51487904534891    -2.60666663219080     4.96063993439038
   15      0.00000000000000     5.21333326438159     4.96063993439038
   16      2.25743952267445     1.30333331609540     4.96063993439038
   17      0.00000000000000     2.60666663219079     1.28063998306221
   18      4.51487904534891     2.60666663219080     1.28063998306221
   19      2.96627553279424    -1.71257997734935     0.19135999746907
   20      3.80604303522913    -2.19741997093684     3.87135994879724
   21      0.00000000000000     4.39483994187368     3.87135994879724
   22      2.96627553279424     1.71257997734935     3.87135994879724
   23      0.00000000000000     3.42515995469870     0.19135999746907
   24      3.80604303522913     2.19741997093684     0.19135999746907
   25      5.22822993451404    -2.19741997093684     7.17599990508995
   26      1.54408863350933     6.10741991922303     3.49599995376177
   27      4.51713648487159     4.39092994192539     7.17599990508995
   28      6.06122511838092    -1.71648997729764     3.49599995376177
   29      4.51713648487159     3.42906995464699     3.49599995376177
   30      0.71109344964245     5.62648992558383     7.17599990508995
   31      0.71109344964245     2.19350997098855     3.49599995376177
   32      2.25518208315178     0.48092999363920     7.17599990508995
   33      6.06122511838092     1.71648997729764     7.17599990508995
   34      2.25518208315178    -0.48092999363920     3.49599995376177
   35      1.54408863350933     1.71257997734935     7.17599990508995
   36      5.22822993451404     2.19741997093684     3.49599995376177

 cartesian forces (hartree/bohr) at end:
    1     -0.15280332879117     0.08822104301065    -0.21822231921649
    2      0.15280332879117    -0.08822104301065    -0.21822231921649
    3      0.00000000000000     0.17644208602130    -0.21822231921649
    4     -0.15280332879117    -0.08822104301065    -0.21822231921649
    5      0.00000000000000    -0.17644208602130    -0.21822231921649
    6      0.15280332879117     0.08822104301065    -0.21822231921649
    7     -0.15001284138433     0.08660995435514    -0.12312398701073
    8      0.15001284138433    -0.08660995435514    -0.12312398701073
    9      0.00000000000000     0.17321990871028    -0.12312398701073
   10     -0.15001284138433    -0.08660995435514    -0.12312398701073
   11      0.00000000000000    -0.17321990871028    -0.12312398701073
   12      0.15001284138433     0.08660995435514    -0.12312398701073
   13      0.00280705078649    -0.00162065152721     0.27492459136637
   14     -0.00280705078649     0.00162065152721     0.27492459136637
   15      0.00000000000000    -0.00324130305441     0.27492459136637
   16      0.00280705078649     0.00162065152721     0.27492459136637
   17      0.00000000000000     0.00324130305441     0.27492459136637
   18     -0.00280705078649    -0.00162065152721     0.27492459136637
   19      0.15155080409091    -0.08749789753779    -0.05322791928051
   20     -0.15155080409091     0.08749789753779    -0.05322791928051
   21      0.00000000000000    -0.17499579507558    -0.05322791928051
   22      0.15155080409091     0.08749789753779    -0.05322791928051
   23      0.00000000000000     0.17499579507558    -0.05322791928051
   24     -0.15155080409091    -0.08749789753779    -0.05322791928051
   25      0.14145394562755     0.07209491807825     0.05982481707068
   26     -0.14145394562755    -0.07209491807825     0.05982481707068
   27      0.00829094227425    -0.15855016941813     0.05982481707068
   28     -0.13316300335330    -0.08645525133988     0.05982481707068
   29      0.00829094227425     0.15855016941813     0.05982481707068
   30      0.13316300335330     0.08645525133988     0.05982481707068
   31      0.13316300335330    -0.08645525133988     0.05982481707068
   32     -0.00829094227425    -0.15855016941813     0.05982481707068
   33     -0.13316300335330     0.08645525133988     0.05982481707068
   34     -0.00829094227425     0.15855016941813     0.05982481707068
   35     -0.14145394562755     0.07209491807825     0.05982481707068
   36      0.14145394562755    -0.07209491807825     0.05982481707068
 frms,max,avg= 1.2704768E-01 2.7492459E-01   0.000E+00  0.000E+00  1.665E-04 h/b

 cartesian forces (eV/Angstrom) at end:
    1     -7.85746258107082     4.53650813632865   -11.22144210576338
    2      7.85746258107082    -4.53650813632865   -11.22144210576338
    3      0.00000000000000     9.07301627265730   -11.22144210576338
    4     -7.85746258107082    -4.53650813632865   -11.22144210576338
    5      0.00000000000000    -9.07301627265730   -11.22144210576338
    6      7.85746258107082     4.53650813632865   -11.22144210576338
    7     -7.71396995852336     4.45366263207415    -6.33128956301215
    8      7.71396995852336    -4.45366263207415    -6.33128956301215
    9      0.00000000000000     8.90732526414830    -6.33128956301215
   10     -7.71396995852336    -4.45366263207415    -6.33128956301215
   11      0.00000000000000    -8.90732526414830    -6.33128956301215
   12      7.71396995852336     4.45366263207415    -6.33128956301215
   13      0.14434434571860    -0.08333724685663    14.13718998379775
   14     -0.14434434571860     0.08333724685663    14.13718998379775
   15      0.00000000000000    -0.16667449371327    14.13718998379775
   16      0.14434434571860     0.08333724685663    14.13718998379775
   17      0.00000000000000     0.16667449371327    14.13718998379775
   18     -0.14434434571860    -0.08333724685663    14.13718998379775
   19      7.79305517553828    -4.49932250340663    -2.73708948177743
   20     -7.79305517553828     4.49932250340663    -2.73708948177743
   21      0.00000000000000    -8.99864500681327    -2.73708948177743
   22      7.79305517553828     4.49932250340663    -2.73708948177743
   23      0.00000000000000     8.99864500681327    -2.73708948177743
   24     -7.79305517553828    -4.49932250340663    -2.73708948177743
   25      7.27385387154967     3.70726950496870     3.07631558337761
   26     -7.27385387154967    -3.70726950496870     3.07631558337761
   27      0.42633736579658    -8.15297698866216     3.07631558337761
   28     -6.84751650575309    -4.44570748369346     3.07631558337761
   29      0.42633736579658     8.15297698866216     3.07631558337761
   30      6.84751650575309     4.44570748369346     3.07631558337761
   31      6.84751650575309    -4.44570748369346     3.07631558337761
   32     -0.42633736579658    -8.15297698866216     3.07631558337761
   33     -6.84751650575309     4.44570748369346     3.07631558337761
   34     -0.42633736579658     8.15297698866216     3.07631558337761
   35     -7.27385387154967     3.70726950496870     3.07631558337761
   36      7.27385387154967    -3.70726950496870     3.07631558337761
 frms,max,avg= 6.5330539E+00 1.4137190E+01   0.000E+00  0.000E+00  8.560E-03 e/A
 length scales= 14.777658102000 14.777658102000 14.777658102000 bohr
              =  7.819999896572  7.819999896572  7.819999896572 angstroms
 prteigrs : about to open file ice-1Ho_EIG
 Fermi (or HOMO) energy (hartree) =  -0.10358   Average Vxc (hartree)=  -0.25749
 Eigenvalues (hartree) for nkpt=   1  k points:
 kpt#   1, nband= 53, wtk=  1.00000, kpt=  0.0000  0.0000  0.0000 (reduced coord)
  -1.01186  -1.00580  -1.00418  -1.00418  -1.00413  -1.00413  -0.98648  -0.98648
  -0.98645  -0.98645  -0.98448  -0.97840  -0.40086  -0.40080  -0.39980  -0.39980
  -0.39938  -0.39938  -0.39703  -0.38876  -0.38681  -0.38681  -0.38501  -0.38501
  -0.27492  -0.24957  -0.23687  -0.23687  -0.22415  -0.22415  -0.21096  -0.21096
  -0.19693  -0.19693  -0.19043  -0.16486  -0.12215  -0.12215  -0.11921  -0.11921
  -0.11916  -0.11362  -0.11255  -0.11045  -0.10707  -0.10707  -0.10358  -0.10358
   0.03549   0.15732   0.17345   0.17709   0.18187

,Min el dens=  1.3604E-04 el/bohr^3 at reduced coord.  0.6222  0.2889  0.3250
,   next min=  1.3604E-04 el/bohr^3 at reduced coord.  0.7111  0.3333  0.3250
,Max el dens=  7.7169E-01 el/bohr^3 at reduced coord.  0.0000  0.6667  0.6250
,   next max=  7.7169E-01 el/bohr^3 at reduced coord.  0.3333  0.3333  0.6250

--------------------------------------------------------------------------------
 Components of total free energy (in Hartree) :

    Kinetic energy  =  1.24900344820435E+02
    Hartree energy  =  9.74227984581931E+01
    XC energy       = -5.71291525785006E+01
    Ewald energy    = -7.11738861424233E+01
    PspCore energy  =  7.27668141076737E-01
    Loc. psp. energy= -3.24946010409018E+02
    NL   psp  energy=  2.88723340280065E+01
    >>>>>>>>> Etotal= -2.01325903682230E+02

 Other information on the energy :
    Total energy(eV)= -5.47835657490713E+03 ; Band energy (Ha)=  -4.1299773479E+01
--------------------------------------------------------------------------------

 Cartesian components of stress tensor (hartree/bohr^3)
  sigma(1 1)=  3.95152108E-03  sigma(3 2)=  0.00000000E+00
  sigma(2 2)=  3.95152108E-03  sigma(3 1)=  0.00000000E+00
  sigma(3 3)=  3.75870329E-03  sigma(2 1)=  0.00000000E+00

-Cartesian components of stress tensor (GPa)         [Pressure= -1.1437E+02 GPa]
- sigma(1 1)=  1.16257749E+02  sigma(3 2)=  0.00000000E+00
- sigma(2 2)=  1.16257749E+02  sigma(3 1)=  0.00000000E+00
- sigma(3 3)=  1.10584854E+02  sigma(2 1)=  0.00000000E+00

== END DATASET(S) ==============================================================
================================================================================
  
 -outvars: echo values of variables after computation  --------
     acell    1.4777658102E+01  1.4777658102E+01  1.4777658102E+01 Bohr
       amu    1.59994000E+01  1.00794000E+00
      ecut    1.00000000E+01 Hartree
    etotal   -2.0132590368E+02
     fcart   -1.5280332879E-01  8.8221043011E-02 -2.1822231922E-01
              1.5280332879E-01 -8.8221043011E-02 -2.1822231922E-01
              7.5065942081E-19  1.7644208602E-01 -2.1822231922E-01
             -1.5280332879E-01 -8.8221043011E-02 -2.1822231922E-01
              7.5065942081E-19 -1.7644208602E-01 -2.1822231922E-01
              1.5280332879E-01  8.8221043011E-02 -2.1822231922E-01
             -1.5001284138E-01  8.6609954355E-02 -1.2312398701E-01
              1.5001284138E-01 -8.6609954355E-02 -1.2312398701E-01
              7.5065942081E-19  1.7321990871E-01 -1.2312398701E-01
             -1.5001284138E-01 -8.6609954355E-02 -1.2312398701E-01
              7.5065942081E-19 -1.7321990871E-01 -1.2312398701E-01
              1.5001284138E-01  8.6609954355E-02 -1.2312398701E-01
              2.8070507865E-03 -1.6206515272E-03  2.7492459137E-01
             -2.8070507865E-03  1.6206515272E-03  2.7492459137E-01
              7.5065942081E-19 -3.2413030544E-03  2.7492459137E-01
              2.8070507865E-03  1.6206515272E-03  2.7492459137E-01
              7.5065942081E-19  3.2413030544E-03  2.7492459137E-01
             -2.8070507865E-03 -1.6206515272E-03  2.7492459137E-01
              1.5155080409E-01 -8.7497897538E-02 -5.3227919281E-02
             -1.5155080409E-01  8.7497897538E-02 -5.3227919281E-02
              7.5065942081E-19 -1.7499579508E-01 -5.3227919281E-02
              1.5155080409E-01  8.7497897538E-02 -5.3227919281E-02
              7.5065942081E-19  1.7499579508E-01 -5.3227919281E-02
             -1.5155080409E-01 -8.7497897538E-02 -5.3227919281E-02
              1.4145394563E-01  7.2094918078E-02  5.9824817071E-02
             -1.4145394563E-01 -7.2094918078E-02  5.9824817071E-02
              8.2909422743E-03 -1.5855016942E-01  5.9824817071E-02
             -1.3316300335E-01 -8.6455251340E-02  5.9824817071E-02
              8.2909422743E-03  1.5855016942E-01  5.9824817071E-02
              1.3316300335E-01  8.6455251340E-02  5.9824817071E-02
              1.3316300335E-01 -8.6455251340E-02  5.9824817071E-02
             -8.2909422743E-03 -1.5855016942E-01  5.9824817071E-02
             -1.3316300335E-01  8.6455251340E-02  5.9824817071E-02
             -8.2909422743E-03  1.5855016942E-01  5.9824817071E-02
             -1.4145394563E-01  7.2094918078E-02  5.9824817071E-02
              1.4145394563E-01 -7.2094918078E-02  5.9824817071E-02
    istwfk      2
P    mkmem         1
     natom        36
     nband        53
     ngfft        45      45      40
      nkpt         1
      nsym        12
    ntypat         2
       occ    2.000000  2.000000  2.000000  2.000000  2.000000  2.000000
              2.000000  2.000000  2.000000  2.000000  2.000000  2.000000
              2.000000  2.000000  2.000000  2.000000  2.000000  2.000000
              2.000000  2.000000  2.000000  2.000000  2.000000  2.000000
              2.000000  2.000000  2.000000  2.000000  2.000000  2.000000
              2.000000  2.000000  2.000000  2.000000  2.000000  2.000000
              2.000000  2.000000  2.000000  2.000000  2.000000  2.000000
              2.000000  2.000000  2.000000  2.000000  2.000000  2.000000
              0.000000  0.000000  0.000000  0.000000  0.000000
     rprim    8.6602540378E-01 -5.0000000000E-01  0.0000000000E+00
              0.0000000000E+00  1.0000000000E+00  0.0000000000E+00
              0.0000000000E+00  0.0000000000E+00  9.4117647059E-01
   spgroup       185
    strten    3.9515210782E-03  3.9515210782E-03  3.7587032874E-03
              0.0000000000E+00  0.0000000000E+00  0.0000000000E+00
    symrel    1  0  0   0  1  0   0  0  1       0  1  0   1  0  0   0  0  1
              1  1  0  -1  0  0   0  0  1      -1  0  0   1  1  0   0  0  1
              0  1  0  -1 -1  0   0  0  1      -1 -1  0   0  1  0   0  0  1
             -1  0  0   0 -1  0   0  0  1       0 -1  0  -1  0  0   0  0  1
             -1 -1  0   1  0  0   0  0  1       1  0  0  -1 -1  0   0  0  1
              0 -1  0   1  1  0   0  0  1       1  1  0   0 -1  0   0  0  1
     tnons    0.0000000  0.0000000  0.0000000    -0.0000000  0.0000000  0.0000000
              0.0000000  0.0000000  0.5000000     0.0000000  0.0000000  0.5000000
              0.0000000  0.0000000  0.0000000     0.0000000  0.0000000  0.0000000
              0.0000000  0.0000000  0.5000000     0.0000000  0.0000000  0.5000000
              0.0000000  0.0000000  0.0000000     0.0000000  0.0000000  0.0000000
             -0.0000000  0.0000000  0.5000000     0.0000000  0.0000000  0.5000000
    toldfe    1.00000000E-06 Hartree
     typat    1  1  1  1  1  1  1  1  1  1  1  1  2  2  2  2  2  2  2  2
              2  2  2  2  2  2  2  2  2  2  2  2  2  2  2  2
    xangst    2.2574395227E+00 -1.3033333161E+00  4.5999999392E-01
              4.5148790453E+00 -2.6066666322E+00  4.1399999452E+00
              0.0000000000E+00  5.2133332644E+00  4.1399999452E+00
              2.2574395227E+00  1.3033333161E+00  4.1399999452E+00
              0.0000000000E+00  2.6066666322E+00  4.5999999392E-01
              4.5148790453E+00  2.6066666322E+00  4.5999999392E-01
              4.5148790453E+00 -2.6066666322E+00  6.8999999087E+00
              2.2574395227E+00 -1.3033333161E+00  3.2199999574E+00
              0.0000000000E+00  2.6066666322E+00  3.2199999574E+00
              4.5148790453E+00  2.6066666322E+00  3.2199999574E+00
              0.0000000000E+00  5.2133332644E+00  6.8999999087E+00
              2.2574395227E+00  1.3033333161E+00  6.8999999087E+00
              2.2574395227E+00 -1.3033333161E+00  1.2806399831E+00
              4.5148790453E+00 -2.6066666322E+00  4.9606399344E+00
              0.0000000000E+00  5.2133332644E+00  4.9606399344E+00
              2.2574395227E+00  1.3033333161E+00  4.9606399344E+00
              0.0000000000E+00  2.6066666322E+00  1.2806399831E+00
              4.5148790453E+00  2.6066666322E+00  1.2806399831E+00
              2.9662755328E+00 -1.7125799773E+00  1.9135999747E-01
              3.8060430352E+00 -2.1974199709E+00  3.8713599488E+00
              0.0000000000E+00  4.3948399419E+00  3.8713599488E+00
              2.9662755328E+00  1.7125799773E+00  3.8713599488E+00
              0.0000000000E+00  3.4251599547E+00  1.9135999747E-01
              3.8060430352E+00  2.1974199709E+00  1.9135999747E-01
              5.2282299345E+00 -2.1974199709E+00  7.1759999051E+00
              1.5440886335E+00  6.1074199192E+00  3.4959999538E+00
              4.5171364849E+00  4.3909299419E+00  7.1759999051E+00
              6.0612251184E+00 -1.7164899773E+00  3.4959999538E+00
              4.5171364849E+00  3.4290699546E+00  3.4959999538E+00
              7.1109344964E-01  5.6264899256E+00  7.1759999051E+00
              7.1109344964E-01  2.1935099710E+00  3.4959999538E+00
              2.2551820832E+00  4.8092999364E-01  7.1759999051E+00
              6.0612251184E+00  1.7164899773E+00  7.1759999051E+00
              2.2551820832E+00 -4.8092999364E-01  3.4959999538E+00
              1.5440886335E+00  1.7125799773E+00  7.1759999051E+00
              5.2282299345E+00  2.1974199709E+00  3.4959999538E+00
     xcart    4.2659424416E+00 -2.4629430170E+00  8.6927400600E-01
              8.5318848832E+00 -4.9258860340E+00  7.8234660540E+00
              0.0000000000E+00  9.8517720680E+00  7.8234660540E+00
              4.2659424416E+00  2.4629430170E+00  7.8234660540E+00
              0.0000000000E+00  4.9258860340E+00  8.6927400600E-01
              8.5318848832E+00  4.9258860340E+00  8.6927400600E-01
              8.5318848832E+00 -4.9258860340E+00  1.3039110090E+01
              4.2659424416E+00 -2.4629430170E+00  6.0849180420E+00
              0.0000000000E+00  4.9258860340E+00  6.0849180420E+00
              8.5318848832E+00  4.9258860340E+00  6.0849180420E+00
              0.0000000000E+00  9.8517720680E+00  1.3039110090E+01
              4.2659424416E+00  2.4629430170E+00  1.3039110090E+01
              4.2659424416E+00 -2.4629430170E+00  2.4200588327E+00
              8.5318848832E+00 -4.9258860340E+00  9.3742508807E+00
              0.0000000000E+00  9.8517720680E+00  9.3742508807E+00
              4.2659424416E+00  2.4629430170E+00  9.3742508807E+00
              0.0000000000E+00  4.9258860340E+00  2.4200588327E+00
              8.5318848832E+00  4.9258860340E+00  2.4200588327E+00
              5.6054483683E+00 -3.2363071243E+00  3.6161798650E-01
              7.1923789565E+00 -4.1525219267E+00  7.3158100345E+00
              0.0000000000E+00  8.3050438533E+00  7.3158100345E+00
              5.6054483683E+00  3.2363071243E+00  7.3158100345E+00
              0.0000000000E+00  6.4726142487E+00  3.6161798650E-01
              7.1923789565E+00  4.1525219267E+00  3.6161798650E-01
              9.8799226947E+00 -4.1525219267E+00  1.3560674494E+01
              2.9179046300E+00  1.1541350978E+01  6.6064824456E+00
              8.5361508256E+00  8.2976550243E+00  1.3560674494E+01
              1.1454055456E+01 -3.2436959534E+00  6.6064824456E+00
              8.5361508256E+00  6.4800030777E+00  6.6064824456E+00
              1.3437718691E+00  1.0632525004E+01  1.3560674494E+01
              1.3437718691E+00  4.1451330976E+00  6.6064824456E+00
              4.2616764991E+00  9.0882597327E-01  1.3560674494E+01
              1.1454055456E+01  3.2436959534E+00  1.3560674494E+01
              4.2616764991E+00 -9.0882597327E-01  6.6064824456E+00
              2.9179046300E+00  3.2363071243E+00  1.3560674494E+01
              9.8799226947E+00  4.1525219267E+00  6.6064824456E+00
      xred    3.3333333333E-01  4.4768514706E-18  6.2500000000E-02
              6.6666666667E-01  4.4768514706E-18  5.6250000000E-01
              0.0000000000E+00  6.6666666667E-01  5.6250000000E-01
              3.3333333333E-01  3.3333333333E-01  5.6250000000E-01
              0.0000000000E+00  3.3333333333E-01  6.2500000000E-02
              6.6666666667E-01  6.6666666667E-01  6.2500000000E-02
              6.6666666667E-01  4.4768514706E-18  9.3750000000E-01
              3.3333333333E-01  4.4768514706E-18  4.3750000000E-01
              0.0000000000E+00  3.3333333333E-01  4.3750000000E-01
              6.6666666667E-01  6.6666666667E-01  4.3750000000E-01
              0.0000000000E+00  6.6666666667E-01  9.3750000000E-01
              3.3333333333E-01  3.3333333333E-01  9.3750000000E-01
              3.3333333333E-01  4.4768514706E-18  1.7400000000E-01
              6.6666666667E-01  4.4768514706E-18  6.7400000000E-01
              0.0000000000E+00  6.6666666667E-01  6.7400000000E-01
              3.3333333333E-01  3.3333333333E-01  6.7400000000E-01
              0.0000000000E+00  3.3333333333E-01  1.7400000000E-01
              6.6666666667E-01  6.6666666667E-01  1.7400000000E-01
              4.3800000000E-01  4.4768514706E-18  2.6000000000E-02
              5.6200000000E-01  4.4768514706E-18  5.2600000000E-01
              0.0000000000E+00  5.6200000000E-01  5.2600000000E-01
              4.3800000000E-01  4.3800000000E-01  5.2600000000E-01
              0.0000000000E+00  4.3800000000E-01  2.6000000000E-02
              5.6200000000E-01  5.6200000000E-01  2.6000000000E-02
              7.7200000000E-01  1.0500000000E-01  9.7500000000E-01
              2.2800000000E-01  8.9500000000E-01  4.7500000000E-01
              6.6700000000E-01  8.9500000000E-01  9.7500000000E-01
              8.9500000000E-01  2.2800000000E-01  4.7500000000E-01
              6.6700000000E-01  7.7200000000E-01  4.7500000000E-01
              1.0500000000E-01  7.7200000000E-01  9.7500000000E-01
              1.0500000000E-01  3.3300000000E-01  4.7500000000E-01
              3.3300000000E-01  2.2800000000E-01  9.7500000000E-01
              8.9500000000E-01  6.6700000000E-01  9.7500000000E-01
              3.3300000000E-01  1.0500000000E-01  4.7500000000E-01
              2.2800000000E-01  3.3300000000E-01  9.7500000000E-01
              7.7200000000E-01  6.6700000000E-01  4.7500000000E-01
     znucl      8.00000    1.00000

================================================================================

- Total cpu        time (s,m,h):          9.0        0.15      0.002
- Total wall clock time (s,m,h):          9.0        0.15      0.002

- For major independent code sections, cpu and wall times (sec),
- as well as % of the total time and number of calls 

- routine                 cpu     %       wall     %      number of calls 
-                                                          (-1=no count)
- fourwf(pot)            4.274  47.6      4.270  47.5           2903
- projbd                 1.153  12.8      1.140  12.7           4640
- nonlop(apply)          0.570   6.3      0.545   6.1           2903
- timing timab           0.480   5.3      0.480   5.3             13
- fourwf(den)            0.383   4.3      0.361   4.0            432
- vtowfk(ssdiag)         0.344   3.8      0.340   3.8             -1
- forces                 0.251   2.8      0.249   2.8              9
- pspini                 0.210   2.3      0.210   2.3              1
- rwwf                   0.120   1.3      0.121   1.3              1
- ewald                  0.103   1.1      0.103   1.1              1
- fourdp                 0.093   1.0      0.096   1.1             46
- stress                 0.084   0.9      0.084   0.9              1
- getghc-other           0.074   0.8      0.084   0.9             -1
- ewald2                 0.072   0.8      0.071   0.8              1
- xc:pot/=fourdp         0.062   0.7      0.063   0.7             10
- invars2                0.052   0.6      0.052   0.6              1
- abinit(2)              0.046   0.5      0.045   0.5              1
- nonlop(forces)         0.044   0.5      0.076   0.8            432
- 48   others            0.142   1.6      0.134   1.5

- subtotal               8.557  95.2      8.524  94.9

================================================================================

 Calculation completed.
.Delivered    0 WARNINGs and   0 COMMENTs to log file.
+Overall time at end (sec) : cpu=          9.0  wall=          9.0
