
.Version 5.3.4  of ABINIT 
.(sequential version, prepared for a i686_linux_UNKNOWN computer) 

.Copyright (C) 1998-2007 ABINIT group . 
 ABINIT comes with ABSOLUTELY NO WARRANTY.
 It is free software, and you are welcome to redistribute it
 under certain conditions (GNU General Public License,
 see ~abinit/COPYING or http://www.gnu.org/copyleft/gpl.txt).

 ABINIT is a project of the Universite Catholique de Louvain,
 Corning Inc. and other collaborators, see ~abinit/doc/developers/contributors.txt .
 Please read ~abinit/doc/users/acknowledgments.html for suggested
 acknowledgments of the ABINIT effort.
 For more information, see http://www.abinit.org .

.Starting date : Sun 20 Jul 2014.
  
- input  file    -> h2o.inp
- output file    -> h2o.out
- root for input  files -> h2oi
- root for output files -> h2oo


 Symmetries : space group C2 2 2_1 (# 20); Bravais oC (1-face-center ortho.)
================================================================================
 Values of the parameters that define the memory need of the present run
   intxc =         0  ionmov =         0    iscf =         7     ixc =         1
  lmnmax =         1   lnmax =         1   mband =        18  mffmem =         1
P  mgfft =        30   mkmem =         1 mpssoang=         2     mpw =       498
  mqgrid =      3001   natom =        12    nfft =     21870    nkpt =         1
  nloalg =         4  nspden =         1 nspinor =         1  nsppol =         1
    nsym =         4  n1xccc =      2501  ntypat =         2  occopt =         1
================================================================================
P This job should need less than                       7.112 Mbytes of memory.
  Rough estimation (10% accuracy) of disk space for files :
  WF disk file :      0.139 Mbytes ; DEN or POT disk file :      0.169 Mbytes.
================================================================================

 -outvars: echo values of preprocessed input variables --------
     acell    1.4739863580E+01  1.4739863580E+01  1.4739863580E+01 Bohr
       amu    1.59994000E+01  1.00794000E+00
      ecut    1.00000000E+01 Hartree
    istwfk      2
P    mkmem         1
     natom        12
     nband        18
     ngfft        27      27      30
      nkpt         1
      nsym         4
    ntypat         2
       occ    2.000000  2.000000  2.000000  2.000000  2.000000  2.000000
              2.000000  2.000000  2.000000  2.000000  2.000000  2.000000
              2.000000  2.000000  2.000000  2.000000  0.000000  0.000000
     rprim    5.0000000000E-01 -2.8846153846E-01  0.0000000000E+00
              5.0000000000E-01  2.8846153846E-01  0.0000000000E+00
              0.0000000000E+00  0.0000000000E+00  7.1282051282E-01
   spgroup        20
    symrel    1  0  0   0  1  0   0  0  1       0 -1  0  -1  0  0   0  0 -1
             -1  0  0   0 -1  0   0  0  1       0  1  0   1  0  0   0  0 -1
     tnons    0.0000000  0.0000000  0.0000000     0.0000000  0.0000000  0.5000000
              0.0000000  0.0000000  0.5000000     0.0000000  0.0000000  0.0000000
    toldfe    1.00000000E-06 Hartree
     typat    1  1  1  1  2  2  2  2  2  2  2  2
    xangst    5.2025999312E+00 -1.3274999824E+00  9.8967998691E-01
              2.5973999656E+00 -1.3274999824E+00  1.7903199763E+00
              2.5973999656E+00  1.3274999824E+00  3.7696799501E+00
              5.2025999312E+00  1.3274999824E+00  4.5703199396E+00
              1.3025999828E+00  0.0000000000E+00  0.0000000000E+00
              6.4973999141E+00  0.0000000000E+00  2.7799999632E+00
              3.8999999484E+00 -1.1249999851E+00  1.3899999816E+00
              3.8999999484E+00  1.1249999851E+00  4.1699999448E+00
              5.8499999226E+00 -2.0249999732E-01  1.3899999816E+00
              1.9499999742E+00 -2.0249999732E-01  1.3899999816E+00
              1.9499999742E+00  2.0249999732E-01  4.1699999448E+00
              5.8499999226E+00  2.0249999732E-01  4.1699999448E+00
     xcart    9.8314890079E+00 -2.5086113977E+00  1.8702241266E+00
              4.9083745721E+00 -2.5086113977E+00  3.3832144314E+00
              4.9083745721E+00  2.5086113977E+00  7.1236626846E+00
              9.8314890079E+00  2.5086113977E+00  8.6366529894E+00
              2.4615572179E+00  0.0000000000E+00  0.0000000000E+00
              1.2278306362E+01  0.0000000000E+00  5.2534385580E+00
              7.3699317900E+00 -2.1259418625E+00  2.6267192790E+00
              7.3699317900E+00  2.1259418625E+00  7.8801578370E+00
              1.1054897685E+01 -3.8266953525E-01  2.6267192790E+00
              3.6849658950E+00 -3.8266953525E-01  2.6267192790E+00
              3.6849658950E+00  3.8266953525E-01  7.8801578370E+00
              1.1054897685E+01  3.8266953525E-01  7.8801578370E+00
      xred    9.6200000000E-01  3.7200000000E-01  1.7800000000E-01
              6.2800000000E-01  3.8000000000E-02  3.2200000000E-01
              3.8000000000E-02  6.2800000000E-01  6.7800000000E-01
              3.7200000000E-01  9.6200000000E-01  8.2200000000E-01
              1.6700000000E-01  1.6700000000E-01  0.0000000000E+00
              8.3300000000E-01  8.3300000000E-01  5.0000000000E-01
              7.5000000000E-01  2.5000000000E-01  2.5000000000E-01
              2.5000000000E-01  7.5000000000E-01  7.5000000000E-01
              7.9500000000E-01  7.0500000000E-01  2.5000000000E-01
              2.9500000000E-01  2.0500000000E-01  2.5000000000E-01
              2.0500000000E-01  2.9500000000E-01  7.5000000000E-01
              7.0500000000E-01  7.9500000000E-01  7.5000000000E-01
     znucl      8.00000    1.00000

================================================================================

 chkinp: Checking input parameters for consistency.

================================================================================
== DATASET  1 ==================================================================

 Real(R)+Recip(G) space primitive vectors, cartesian coordinates (Bohr,Bohr^-1):
 R(1)=  7.3699318 -4.2518837  0.0000000  G(1)=  0.0678432 -0.1175949  0.0000000
 R(2)=  7.3699318  4.2518837  0.0000000  G(2)=  0.0678432  0.1175949  0.0000000
 R(3)=  0.0000000  0.0000000 10.5068771  G(3)=  0.0000000  0.0000000  0.0951758
 Unit cell volume ucvol=  6.5848896E+02 bohr^3
 Angles (23,13,12)=  9.00000000E+01  9.00000000E+01  5.99632787E+01 degrees

 getcut: wavevector=  0.0000  0.0000  0.0000  ngfft=  27  27  30
         ecut(hartree)=     10.000   => boxcut(ratio)=   2.00578

--- Pseudopotential description ------------------------------------------------
- pspini: atom type   1  psp file is 8o.pspnc
- pspatm: opening atomic psp file    8o.pspnc
  Troullier-Martins psp for element  O         Thu Oct 27 17:29:57 EDT 1994
   8.00000   6.00000    940714                znucl, zion, pspdat
    1    1    1    1      2001   0.00000      pspcod,pspxc,lmax,lloc,mmax,r2well
    0   5.480  16.893    1   1.4482335        l,e99.0,e99.9,nproj,rcpsp
   0.00000000   0.00000000   0.00000000   0.00000000     rms, ekb1, ekb2, epsatm
    1  20.911  28.075    0   1.4482335        l,e99.0,e99.9,nproj,rcpsp
   0.00000000   0.00000000   0.00000000   0.00000000     rms, ekb1, ekb2, epsatm
    0.56990156784787    3.95561236318184    0.63894027514378   rchrg,fchrg,qchrg
 pspatm: epsatm=    1.57752239
         --- l  ekb(1:nproj) -->
             0    5.670783
 pspatm: atomic psp has been read  and splines computed

- pspini: atom type   2  psp file is 1h.pspnc
- pspatm: opening atomic psp file    1h.pspnc
  Troullier-Martins psp for element  H         Thu Oct 27 17:28:54 EDT 1994
   1.00000   1.00000    940714                znucl, zion, pspdat
    1    1    0    0      2001   0.00000      pspcod,pspxc,lmax,lloc,mmax,r2well
    0   7.740  11.990    0   1.5855604        l,e99.0,e99.9,nproj,rcpsp
   0.00000000   0.00000000   0.00000000   0.00000000     rms, ekb1, ekb2, epsatm
    0.00000000000000    0.00000000000000    0.00000000000000   rchrg,fchrg,qchrg
 Note: local psp for atom with Z=  1.0
 pspatm: epsatm=    0.04198703
         --- l  ekb(1:nproj) -->
 pspatm: atomic psp has been read  and splines computed

   2.12671546E+02                                ecore*ucvol(ha*bohr**3)
--------------------------------------------------------------------------------

P newkpt: treating     18 bands with npw=     498 for ikpt=   1

 setup2: Arith. and geom. avg. npw (full set) are     995.000     995.000

================================================================================

     iter   Etot(hartree)      deltaE(h)  residm     vres2    diffor    maxfor
 ETOT  1  -66.556109852971    -6.656E+01 5.278E-03 4.190E+02 6.831E-02 6.831E-02
 ETOT  2  -66.874757588958    -3.186E-01 1.299E-04 2.515E+02 7.885E-02 4.093E-02
 ETOT  3  -67.396126107128    -5.214E-01 4.887E-03 3.960E-01 2.786E-02 4.619E-02
 ETOT  4  -67.396480424129    -3.543E-04 2.336E-06 1.471E-02 6.008E-04 4.658E-02
 ETOT  5  -67.396488038189    -7.614E-06 2.978E-07 1.636E-03 2.319E-04 4.639E-02
 ETOT  6  -67.396489383287    -1.345E-06 3.802E-08 9.490E-05 9.213E-05 4.648E-02
 ETOT  7  -67.396489410088    -2.680E-08 1.059E-09 1.014E-05 8.476E-06 4.647E-02
 ETOT  8  -67.396489411592    -1.504E-09 1.621E-11 4.066E-07 2.444E-06 4.647E-02

 At SCF step    8, etot is converged :
  for the second time, diff in etot=  1.504E-09 < toldfe=  1.000E-06

 Cartesian components of stress tensor (hartree/bohr^3)
  sigma(1 1)=  6.21657880E-03  sigma(3 2)=  0.00000000E+00
  sigma(2 2)=  6.39410303E-03  sigma(3 1)=  0.00000000E+00
  sigma(3 3)=  5.74720276E-03  sigma(2 1)=  0.00000000E+00

================================================================================

 ----iterations are completed or convergence reached----

 Mean square residual over all n,k,spin=   9.0084E-12; max=  1.6208E-11
   0.0000  0.0000  0.0000    1  1.62082E-11 kpt; spin; max resid(k); each band:
 1.54E-11 1.62E-11 8.88E-12 1.20E-11 7.77E-12 6.86E-12 6.61E-12 1.06E-11
 2.16E-12 9.72E-12 6.12E-12 6.99E-12 4.61E-12 6.81E-12 9.01E-12 1.16E-11
 1.14E-11 9.49E-12
 reduced coordinates (array xred) for   12 atoms
       0.962000000000      0.372000000000      0.178000000000
       0.628000000000      0.038000000000      0.322000000000
       0.038000000000      0.628000000000      0.678000000000
       0.372000000000      0.962000000000      0.822000000000
       0.167000000000      0.167000000000      0.000000000000
       0.833000000000      0.833000000000      0.500000000000
       0.750000000000      0.250000000000      0.250000000000
       0.250000000000      0.750000000000      0.750000000000
       0.795000000000      0.705000000000      0.250000000000
       0.295000000000      0.205000000000      0.250000000000
       0.205000000000      0.295000000000      0.750000000000
       0.705000000000      0.795000000000      0.750000000000
 rms dE/dt=  1.9612E-01; max dE/dt=  4.8827E-01; dE/dt below (all hartree)
    1       0.019324292024      0.126581720571      0.488269395812
    2      -0.126581720571     -0.019324292024     -0.488269395812
    3      -0.019324292024     -0.126581720571      0.488269395812
    4       0.126581720571      0.019324292024     -0.488269395812
    5       0.107801130683      0.107801130683      0.000000000000
    6      -0.107801130683     -0.107801130683      0.000000000000
    7      -0.124282086691      0.124282086691      0.000000000000
    8       0.124282086691     -0.124282086691      0.000000000000
    9      -0.056386642707     -0.137298388982      0.205630510538
   10       0.137298388982      0.056386642707     -0.205630510538
   11       0.056386642707      0.137298388982      0.205630510538
   12      -0.137298388982     -0.056386642707     -0.205630510538

 cartesian coordinates (angstrom) at end:
    1      5.20259993119021    -1.32749998244243     0.98967998691046
    2      2.59739996564669    -1.32749998244243     1.79031997632116
    3      2.59739996564669     1.32749998244243     3.76967995014207
    4      5.20259993119021     1.32749998244243     4.57031993955277
    5      1.30259998277176     0.00000000000000     0.00000000000000
    6      6.49739991406514     0.00000000000000     2.77999996323161
    7      3.89999994841845    -1.12499998512071     1.38999998161581
    8      3.89999994841845     1.12499998512071     4.16999994484742
    9      5.84999992262768    -0.20249999732173     1.38999998161581
   10      1.94999997420923    -0.20249999732173     1.38999998161581
   11      1.94999997420923     0.20249999732173     4.16999994484742
   12      5.84999992262768     0.20249999732173     4.16999994484742

 cartesian forces (hartree/bohr) at end:
    1     -0.00989873561605    -0.01261293058383    -0.04647141014608
    2      0.00989873561605    -0.01261293058383     0.04647141014608
    3      0.00989873561605     0.01261293058383    -0.04647141014608
    4     -0.00989873561605     0.01261293058383     0.04647141014608
    5     -0.01462715446425     0.00000000000000     0.00000000000000
    6      0.01462715446425     0.00000000000000     0.00000000000000
    7     -0.00000000000000    -0.02922988838102     0.00000000000000
    8     -0.00000000000000     0.02922988838102     0.00000000000000
    9      0.01314021874338     0.00951481172904    -0.01957103983112
   10     -0.01314021874338     0.00951481172904     0.01957103983112
   11     -0.01314021874338    -0.00951481172904    -0.01957103983112
   12      0.01314021874338    -0.00951481172904     0.01957103983112
 frms,max,avg= 1.9991819E-02 4.6471410E-02   0.000E+00  0.000E+00  0.000E+00 h/b

 cartesian forces (eV/Angstrom) at end:
    1     -0.50901341821745    -0.64858292606682    -2.38965583538710
    2      0.50901341821745    -0.64858292606682     2.38965583538710
    3      0.50901341821745     0.64858292606682    -2.38965583538710
    4     -0.50901341821745     0.64858292606682     2.38965583538710
    5     -0.75215847573232     0.00000000000000     0.00000000000000
    6      0.75215847573232     0.00000000000000     0.00000000000000
    7     -0.00000000000000    -1.50306119650454     0.00000000000000
    8     -0.00000000000000     1.50306119650454     0.00000000000000
    9      0.67569717165209     0.48927125945697    -1.00638326640008
   10     -0.67569717165209     0.48927125945697     1.00638326640008
   11     -0.67569717165209    -0.48927125945697    -1.00638326640008
   12      0.67569717165209    -0.48927125945697     1.00638326640008
 frms,max,avg= 1.0280206E+00 2.3896558E+00   0.000E+00  0.000E+00  0.000E+00 e/A
 length scales= 14.739863580000 14.739863580000 14.739863580000 bohr
              =  7.799999896837  7.799999896837  7.799999896837 angstroms
 prteigrs : about to open file h2oo_EIG
 Fermi (or HOMO) energy (hartree) =  -0.03992   Average Vxc (hartree)=  -0.31899
 Eigenvalues (hartree) for nkpt=   1  k points:
 kpt#   1, nband= 18, wtk=  1.00000, kpt=  0.0000  0.0000  0.0000 (reduced coord)
  -0.87174  -0.84924  -0.82520  -0.81225  -0.30480  -0.23497  -0.22370  -0.21633
  -0.19518  -0.16105  -0.11277  -0.05731  -0.05222  -0.04263  -0.04137  -0.03992
   0.02377   0.20147

,Min el dens=  2.1549E-04 el/bohr^3 at reduced coord.  0.2963  0.7037  0.2333
,   next min=  2.1549E-04 el/bohr^3 at reduced coord.  0.2963  0.7037  0.2667
,Max el dens=  6.6683E-01 el/bohr^3 at reduced coord.  0.4074  0.9259  0.8667
,   next max=  6.6683E-01 el/bohr^3 at reduced coord.  0.0741  0.5926  0.6333

--------------------------------------------------------------------------------
 Components of total free energy (in Hartree) :

    Kinetic energy  =  3.75874722765471E+01
    Hartree energy  =  2.27637094216573E+01
    XC energy       = -1.81223641765291E+01
    Ewald energy    = -3.71921214233243E+01
    PspCore energy  =  3.22969039024445E-01
    Loc. psp. energy= -8.28746948571284E+01
    NL   psp  energy=  1.01185403081610E+01
    >>>>>>>>> Etotal= -6.73964894115919E+01

 Other information on the energy :
    Total energy(eV)= -1.83395178732901E+03 ; Band energy (Ha)=  -1.0081353366E+01
--------------------------------------------------------------------------------

 Cartesian components of stress tensor (hartree/bohr^3)
  sigma(1 1)=  6.21657880E-03  sigma(3 2)=  0.00000000E+00
  sigma(2 2)=  6.39410303E-03  sigma(3 1)=  0.00000000E+00
  sigma(3 3)=  5.74720276E-03  sigma(2 1)=  0.00000000E+00

-Cartesian components of stress tensor (GPa)         [Pressure= -1.8004E+02 GPa]
- sigma(1 1)=  1.82898039E+02  sigma(3 2)=  0.00000000E+00
- sigma(2 2)=  1.88120981E+02  sigma(3 1)=  0.00000000E+00
- sigma(3 3)=  1.69088521E+02  sigma(2 1)=  0.00000000E+00

== END DATASET(S) ==============================================================
================================================================================
  
 -outvars: echo values of variables after computation  --------
     acell    1.4739863580E+01  1.4739863580E+01  1.4739863580E+01 Bohr
       amu    1.59994000E+01  1.00794000E+00
      ecut    1.00000000E+01 Hartree
    etotal   -6.7396489412E+01
     fcart   -9.8987356160E-03 -1.2612930584E-02 -4.6471410146E-02
              9.8987356160E-03 -1.2612930584E-02  4.6471410146E-02
              9.8987356160E-03  1.2612930584E-02 -4.6471410146E-02
             -9.8987356160E-03  1.2612930584E-02  4.6471410146E-02
             -1.4627154464E-02  7.7644686832E-21  2.6032145912E-19
              1.4627154464E-02  7.7644686832E-21  2.6032145912E-19
             -2.6822709996E-21 -2.9229888381E-02  2.6032145912E-19
             -2.6822709996E-21  2.9229888381E-02  2.6032145912E-19
              1.3140218743E-02  9.5148117290E-03 -1.9571039831E-02
             -1.3140218743E-02  9.5148117290E-03  1.9571039831E-02
             -1.3140218743E-02 -9.5148117290E-03 -1.9571039831E-02
              1.3140218743E-02 -9.5148117290E-03  1.9571039831E-02
    istwfk      2
P    mkmem         1
     natom        12
     nband        18
     ngfft        27      27      30
      nkpt         1
      nsym         4
    ntypat         2
       occ    2.000000  2.000000  2.000000  2.000000  2.000000  2.000000
              2.000000  2.000000  2.000000  2.000000  2.000000  2.000000
              2.000000  2.000000  2.000000  2.000000  0.000000  0.000000
     rprim    5.0000000000E-01 -2.8846153846E-01  0.0000000000E+00
              5.0000000000E-01  2.8846153846E-01  0.0000000000E+00
              0.0000000000E+00  0.0000000000E+00  7.1282051282E-01
   spgroup        20
    strten    6.2165788021E-03  6.3941030284E-03  5.7472027589E-03
              0.0000000000E+00  0.0000000000E+00  0.0000000000E+00
    symrel    1  0  0   0  1  0   0  0  1       0 -1  0  -1  0  0   0  0 -1
             -1  0  0   0 -1  0   0  0  1       0  1  0   1  0  0   0  0 -1
     tnons    0.0000000  0.0000000  0.0000000     0.0000000  0.0000000  0.5000000
              0.0000000  0.0000000  0.5000000     0.0000000  0.0000000  0.0000000
    toldfe    1.00000000E-06 Hartree
     typat    1  1  1  1  2  2  2  2  2  2  2  2
    xangst    5.2025999312E+00 -1.3274999824E+00  9.8967998691E-01
              2.5973999656E+00 -1.3274999824E+00  1.7903199763E+00
              2.5973999656E+00  1.3274999824E+00  3.7696799501E+00
              5.2025999312E+00  1.3274999824E+00  4.5703199396E+00
              1.3025999828E+00  0.0000000000E+00  1.5432099838E-16
              6.4973999141E+00  0.0000000000E+00  2.7799999632E+00
              3.8999999484E+00 -1.1249999851E+00  1.3899999816E+00
              3.8999999484E+00  1.1249999851E+00  4.1699999448E+00
              5.8499999226E+00 -2.0249999732E-01  1.3899999816E+00
              1.9499999742E+00 -2.0249999732E-01  1.3899999816E+00
              1.9499999742E+00  2.0249999732E-01  4.1699999448E+00
              5.8499999226E+00  2.0249999732E-01  4.1699999448E+00
     xcart    9.8314890079E+00 -2.5086113977E+00  1.8702241266E+00
              4.9083745721E+00 -2.5086113977E+00  3.3832144314E+00
              4.9083745721E+00  2.5086113977E+00  7.1236626846E+00
              9.8314890079E+00  2.5086113977E+00  8.6366529894E+00
              2.4615572179E+00  0.0000000000E+00  2.9162442228E-16
              1.2278306362E+01  0.0000000000E+00  5.2534385580E+00
              7.3699317900E+00 -2.1259418625E+00  2.6267192790E+00
              7.3699317900E+00  2.1259418625E+00  7.8801578370E+00
              1.1054897685E+01 -3.8266953525E-01  2.6267192790E+00
              3.6849658950E+00 -3.8266953525E-01  2.6267192790E+00
              3.6849658950E+00  3.8266953525E-01  7.8801578370E+00
              1.1054897685E+01  3.8266953525E-01  7.8801578370E+00
      xred    9.6200000000E-01  3.7200000000E-01  1.7800000000E-01
              6.2800000000E-01  3.8000000000E-02  3.2200000000E-01
              3.8000000000E-02  6.2800000000E-01  6.7800000000E-01
              3.7200000000E-01  9.6200000000E-01  8.2200000000E-01
              1.6700000000E-01  1.6700000000E-01  2.7755575616E-17
              8.3300000000E-01  8.3300000000E-01  5.0000000000E-01
              7.5000000000E-01  2.5000000000E-01  2.5000000000E-01
              2.5000000000E-01  7.5000000000E-01  7.5000000000E-01
              7.9500000000E-01  7.0500000000E-01  2.5000000000E-01
              2.9500000000E-01  2.0500000000E-01  2.5000000000E-01
              2.0500000000E-01  2.9500000000E-01  7.5000000000E-01
              7.0500000000E-01  7.9500000000E-01  7.5000000000E-01
     znucl      8.00000    1.00000

================================================================================

- Total cpu        time (s,m,h):          1.4        0.02      0.000
- Total wall clock time (s,m,h):          1.4        0.02      0.000

- For major independent code sections, cpu and wall times (sec),
- as well as % of the total time and number of calls 

- routine                 cpu     %       wall     %      number of calls 
-                                                          (-1=no count)
- timing timab           0.487  34.6      0.487  34.6             13
- fourwf(pot)            0.330  23.5      0.336  23.9            889
- pspini                 0.210  14.9      0.209  14.9              1
- invars2                0.039   2.8      0.039   2.8              1
- forces                 0.038   2.7      0.033   2.3              8
- projbd                 0.031   2.2      0.035   2.5           1418
- fourwf(den)            0.026   1.8      0.024   1.7            128
- nonlop(apply)          0.022   1.6      0.023   1.6            889
- vtowfk(ssdiag)         0.018   1.3      0.018   1.3             -1
- ewald                  0.017   1.2      0.016   1.1              1
- stress                 0.017   1.2      0.016   1.1              1
- xc:pot/=fourdp         0.015   1.1      0.015   1.1              9
- ewald2                 0.014   1.0      0.013   0.9              1
- fourdp                 0.014   1.0      0.021   1.5             41
- rwwf                   0.011   0.8      0.011   0.8              1
- abinit(2)              0.011   0.8      0.011   0.8              1
- symrhg(no FFT)         0.010   0.7      0.010   0.7              8
- getghc-other           0.009   0.6      0.011   0.8             -1
- 48   others            0.029   2.1      0.021   1.5

- subtotal               1.348  95.9      1.349  95.9

================================================================================

 Calculation completed.
.Delivered    0 WARNINGs and   0 COMMENTs to log file.
+Overall time at end (sec) : cpu=          1.4  wall=          1.4
