
.Version 5.3.4  of ABINIT 
.(sequential version, prepared for a i686_linux_UNKNOWN computer) 

.Copyright (C) 1998-2007 ABINIT group . 
 ABINIT comes with ABSOLUTELY NO WARRANTY.
 It is free software, and you are welcome to redistribute it
 under certain conditions (GNU General Public License,
 see ~abinit/COPYING or http://www.gnu.org/copyleft/gpl.txt).

 ABINIT is a project of the Universite Catholique de Louvain,
 Corning Inc. and other collaborators, see ~abinit/doc/developers/contributors.txt .
 Please read ~abinit/doc/users/acknowledgments.html for suggested
 acknowledgments of the ABINIT effort.
 For more information, see http://www.abinit.org .

.Starting date : Sun 20 Jul 2014.
  
- input  file    -> h2o.inp
- output file    -> h2o.out
- root for input  files -> h2oi
- root for output files -> h2oo


 Symmetries : space group C2 2 2_1 (# 20); Bravais oC (1-face-center ortho.)
================================================================================
 Values of the parameters that define the memory need of the present run
   intxc =         0  ionmov =         0    iscf =         7     ixc =        11
  lmnmax =         1   lnmax =         1   mband =        18  mffmem =         1
P  mgfft =        30   mkmem =         1 mpssoang=         1     mpw =       498
  mqgrid =      3001   natom =        12    nfft =     21870    nkpt =         1
  nloalg =         4  nspden =         1 nspinor =         1  nsppol =         1
    nsym =         4  n1xccc =         0  ntypat =         2  occopt =         1
================================================================================
P This job should need less than                       7.376 Mbytes of memory.
  Rough estimation (10% accuracy) of disk space for files :
  WF disk file :      0.139 Mbytes ; DEN or POT disk file :      0.169 Mbytes.
================================================================================

 -outvars: echo values of preprocessed input variables --------
     acell    1.4739863580E+01  1.4739863580E+01  1.4739863580E+01 Bohr
       amu    1.59994000E+01  1.00794000E+00
      ecut    1.00000000E+01 Hartree
    istwfk      2
       ixc        11
P    mkmem         1
     natom        12
     nband        18
     ngfft        27      27      30
      nkpt         1
      nsym         4
    ntypat         2
       occ    2.000000  2.000000  2.000000  2.000000  2.000000  2.000000
              2.000000  2.000000  2.000000  2.000000  2.000000  2.000000
              2.000000  2.000000  2.000000  2.000000  0.000000  0.000000
     rprim    5.0000000000E-01 -2.8846153846E-01  0.0000000000E+00
              5.0000000000E-01  2.8846153846E-01  0.0000000000E+00
              0.0000000000E+00  0.0000000000E+00  7.1282051282E-01
   spgroup        20
    symrel    1  0  0   0  1  0   0  0  1       0 -1  0  -1  0  0   0  0 -1
             -1  0  0   0 -1  0   0  0  1       0  1  0   1  0  0   0  0 -1
     tnons    0.0000000  0.0000000  0.0000000     0.0000000  0.0000000  0.5000000
              0.0000000  0.0000000  0.5000000     0.0000000  0.0000000  0.0000000
    toldfe    1.00000000E-06 Hartree
     typat    1  1  1  1  2  2  2  2  2  2  2  2
    xangst    5.2025999312E+00 -1.3274999824E+00  9.8967998691E-01
              2.5973999656E+00 -1.3274999824E+00  1.7903199763E+00
              2.5973999656E+00  1.3274999824E+00  3.7696799501E+00
              5.2025999312E+00  1.3274999824E+00  4.5703199396E+00
              1.3025999828E+00  0.0000000000E+00  0.0000000000E+00
              6.4973999141E+00  0.0000000000E+00  2.7799999632E+00
              3.8999999484E+00 -1.1249999851E+00  1.3899999816E+00
              3.8999999484E+00  1.1249999851E+00  4.1699999448E+00
              5.8499999226E+00 -2.0249999732E-01  1.3899999816E+00
              1.9499999742E+00 -2.0249999732E-01  1.3899999816E+00
              1.9499999742E+00  2.0249999732E-01  4.1699999448E+00
              5.8499999226E+00  2.0249999732E-01  4.1699999448E+00
     xcart    9.8314890079E+00 -2.5086113977E+00  1.8702241266E+00
              4.9083745721E+00 -2.5086113977E+00  3.3832144314E+00
              4.9083745721E+00  2.5086113977E+00  7.1236626846E+00
              9.8314890079E+00  2.5086113977E+00  8.6366529894E+00
              2.4615572179E+00  0.0000000000E+00  0.0000000000E+00
              1.2278306362E+01  0.0000000000E+00  5.2534385580E+00
              7.3699317900E+00 -2.1259418625E+00  2.6267192790E+00
              7.3699317900E+00  2.1259418625E+00  7.8801578370E+00
              1.1054897685E+01 -3.8266953525E-01  2.6267192790E+00
              3.6849658950E+00 -3.8266953525E-01  2.6267192790E+00
              3.6849658950E+00  3.8266953525E-01  7.8801578370E+00
              1.1054897685E+01  3.8266953525E-01  7.8801578370E+00
      xred    9.6200000000E-01  3.7200000000E-01  1.7800000000E-01
              6.2800000000E-01  3.8000000000E-02  3.2200000000E-01
              3.8000000000E-02  6.2800000000E-01  6.7800000000E-01
              3.7200000000E-01  9.6200000000E-01  8.2200000000E-01
              1.6700000000E-01  1.6700000000E-01  0.0000000000E+00
              8.3300000000E-01  8.3300000000E-01  5.0000000000E-01
              7.5000000000E-01  2.5000000000E-01  2.5000000000E-01
              2.5000000000E-01  7.5000000000E-01  7.5000000000E-01
              7.9500000000E-01  7.0500000000E-01  2.5000000000E-01
              2.9500000000E-01  2.0500000000E-01  2.5000000000E-01
              2.0500000000E-01  2.9500000000E-01  7.5000000000E-01
              7.0500000000E-01  7.9500000000E-01  7.5000000000E-01
     znucl      8.00000    1.00000

================================================================================

 chkinp: Checking input parameters for consistency.

================================================================================
== DATASET  1 ==================================================================

 Real(R)+Recip(G) space primitive vectors, cartesian coordinates (Bohr,Bohr^-1):
 R(1)=  7.3699318 -4.2518837  0.0000000  G(1)=  0.0678432 -0.1175949  0.0000000
 R(2)=  7.3699318  4.2518837  0.0000000  G(2)=  0.0678432  0.1175949  0.0000000
 R(3)=  0.0000000  0.0000000 10.5068771  G(3)=  0.0000000  0.0000000  0.0951758
 Unit cell volume ucvol=  6.5848896E+02 bohr^3
 Angles (23,13,12)=  9.00000000E+01  9.00000000E+01  5.99632787E+01 degrees

 getcut: wavevector=  0.0000  0.0000  0.0000  ngfft=  27  27  30
         ecut(hartree)=     10.000   => boxcut(ratio)=   2.00578

--- Pseudopotential description ------------------------------------------------
- pspini: atom type   1  psp file is 08o.pbe_hgh
- pspatm: opening atomic psp file    08o.pbe_hgh
 Hartwigsen-Goedecker-Hutter psp for Oxygen, PBE GGA, created in LLN.
   8.00000   6.00000    980723                znucl, zion, pspdat
    3   11    0    0      2001   0.00000      pspcod,pspxc,lmax,lloc,mmax,r2well
 rloc=   0.2449978
 cc1 = -16.6260393; cc2 =   2.4804681; cc3 =   0.0000000; cc4 =   0.0000000
 rrs =   0.2210046; h11s=  18.3265022; h22s=   0.0000000; h33s=   0.0000000
-  Local part computed in reciprocal space.

 pspatm : COMMENT -
  the projectors are not normalized,
  so that the KB energies are not consistent with
  definition in PRB44, 8503 (1991).
  However, this does not influence the results obtained hereafter.
 pspatm: epsatm=    0.13559956
         --- l  ekb(1:nproj) -->
             0    0.701276
 pspatm: atomic psp has been read  and splines computed

- pspini: atom type   2  psp file is 01h.pbe_hgh
- pspatm: opening atomic psp file    01h.pbe_hgh
 Hartwigsen-Goedecker-Hutter psp for Hydrogen, PBE GGA, created in LLN.
   1.00000   1.00000    980723                znucl, zion, pspdat
    3   11    0    0      2001   0.00000      pspcod,pspxc,lmax,lloc,mmax,r2well
 rloc=   0.2000000
 cc1 =  -4.1789475; cc2 =   0.7244856; cc3 =   0.0000000; cc4 =   0.0000000
 rrs =   0.2000000; h11s=   0.0000000; h22s=   0.0000000; h33s=   0.0000000
-  Local part computed in reciprocal space.

 pspatm : COMMENT -
  the projectors are not normalized,
  so that the KB energies are not consistent with
  definition in PRB44, 8503 (1991).
  However, this does not influence the results obtained hereafter.
 pspatm: epsatm=   -0.00135815
         --- l  ekb(1:nproj) -->
 pspatm: atomic psp has been read  and splines computed

   1.70090562E+01                                ecore*ucvol(ha*bohr**3)
--------------------------------------------------------------------------------

P newkpt: treating     18 bands with npw=     498 for ikpt=   1

 setup2: Arith. and geom. avg. npw (full set) are     995.000     995.000

================================================================================

     iter   Etot(hartree)      deltaE(h)  residm     vres2    diffor    maxfor
 ETOT  1  -61.700659430039    -6.170E+01 4.528E-03 7.157E+02 3.359E-02 3.359E-02
 ETOT  2  -62.453262577552    -7.526E-01 5.148E-04 2.506E+02 8.130E-02 4.771E-02
 ETOT  3  -62.939053177743    -4.858E-01 4.909E-03 1.760E+00 2.726E-02 2.820E-02
 ETOT  4  -62.939384608178    -3.314E-04 2.122E-06 1.143E-01 6.441E-04 2.849E-02
 ETOT  5  -62.939430075616    -4.547E-05 4.515E-07 1.146E-02 1.611E-04 2.862E-02
 ETOT  6  -62.939432745360    -2.670E-06 2.674E-08 7.413E-04 1.108E-04 2.862E-02
 ETOT  7  -62.939433012137    -2.668E-07 6.559E-09 2.712E-05 3.181E-05 2.861E-02
 ETOT  8  -62.939433019268    -7.131E-09 4.717E-10 1.575E-06 8.071E-06 2.861E-02

 At SCF step    8, etot is converged :
  for the second time, diff in etot=  7.131E-09 < toldfe=  1.000E-06

 Cartesian components of stress tensor (hartree/bohr^3)
  sigma(1 1)=  5.31621439E-03  sigma(3 2)=  0.00000000E+00
  sigma(2 2)=  5.60944806E-03  sigma(3 1)=  0.00000000E+00
  sigma(3 3)=  4.70893784E-03  sigma(2 1)=  0.00000000E+00

================================================================================

 ----iterations are completed or convergence reached----

 Mean square residual over all n,k,spin=   9.1003E-11; max=  4.7167E-10
   0.0000  0.0000  0.0000    1  4.71675E-10 kpt; spin; max resid(k); each band:
 1.61E-10 1.57E-10 1.04E-10 1.22E-10 2.16E-11 1.15E-11 6.28E-11 4.97E-12
 1.97E-11 7.61E-11 2.43E-11 2.04E-11 1.17E-11 1.33E-10 6.05E-11 1.58E-10
 1.71E-11 4.72E-10
 reduced coordinates (array xred) for   12 atoms
       0.962000000000      0.372000000000      0.178000000000
       0.628000000000      0.038000000000      0.322000000000
       0.038000000000      0.628000000000      0.678000000000
       0.372000000000      0.962000000000      0.822000000000
       0.167000000000      0.167000000000      0.000000000000
       0.833000000000      0.833000000000      0.500000000000
       0.750000000000      0.250000000000      0.250000000000
       0.250000000000      0.750000000000      0.750000000000
       0.795000000000      0.705000000000      0.250000000000
       0.295000000000      0.205000000000      0.250000000000
       0.205000000000      0.295000000000      0.750000000000
       0.705000000000      0.795000000000      0.750000000000
 rms dE/dt=  1.2007E-01; max dE/dt=  2.3530E-01; dE/dt below (all hartree)
    1      -0.020354721739      0.160659520110      0.091140557205
    2      -0.160659520110      0.020354721739     -0.091140557205
    3       0.020354721739     -0.160659520110      0.091140557205
    4       0.160659520110     -0.020354721739     -0.091140557205
    5       0.105805331817      0.105805331817      0.000000000000
    6      -0.105805331817     -0.105805331817      0.000000000000
    7      -0.121635941569      0.121635941569      0.000000000000
    8       0.121635941569     -0.121635941569      0.000000000000
    9      -0.041551947209     -0.110134956399      0.235302141996
   10       0.110134956399      0.041551947209     -0.235302141996
   11       0.041551947209      0.110134956399      0.235302141996
   12      -0.110134956399     -0.041551947209     -0.235302141996

 cartesian coordinates (angstrom) at end:
    1      5.20259993119021    -1.32749998244243     0.98967998691046
    2      2.59739996564669    -1.32749998244243     1.79031997632116
    3      2.59739996564669     1.32749998244243     3.76967995014207
    4      5.20259993119021     1.32749998244243     4.57031993955277
    5      1.30259998277176     0.00000000000000     0.00000000000000
    6      6.49739991406514     0.00000000000000     2.77999996323161
    7      3.89999994841845    -1.12499998512071     1.38999998161581
    8      3.89999994841845     1.12499998512071     4.16999994484742
    9      5.84999992262768    -0.20249999732173     1.38999998161581
   10      1.94999997420923    -0.20249999732173     1.38999998161581
   11      1.94999997420923     0.20249999732173     4.16999994484742
   12      5.84999992262768     0.20249999732173     4.16999994484742

 cartesian forces (hartree/bohr) at end:
    1     -0.00951873113411    -0.02128635841859    -0.00867437167098
    2      0.00951873113411    -0.02128635841859     0.00867437167098
    3      0.00951873113411     0.02128635841859    -0.00867437167098
    4     -0.00951873113411     0.02128635841859     0.00867437167098
    5     -0.01435635156899    -0.00000000000000     0.00000000000000
    6      0.01435635156899    -0.00000000000000     0.00000000000000
    7     -0.00000000000000    -0.02860754184160     0.00000000000000
    8     -0.00000000000000     0.02860754184160     0.00000000000000
    9      0.01029092995232     0.00806501466475    -0.02239505986394
   10     -0.01029092995232     0.00806501466475     0.02239505986394
   11     -0.01029092995232    -0.00806501466475    -0.02239505986394
   12      0.01029092995232    -0.00806501466475     0.02239505986394
 frms,max,avg= 1.4156642E-02 2.8607542E-02   0.000E+00  0.000E+00  0.000E+00 h/b

 cartesian forces (eV/Angstrom) at end:
    1     -0.48947280335598    -1.09458848890603    -0.44605409684592
    2      0.48947280335598    -1.09458848890603     0.44605409684592
    3      0.48947280335598     1.09458848890603    -0.44605409684592
    4     -0.48947280335598     1.09458848890603     0.44605409684592
    5     -0.73823323187038    -0.00000000000000     0.00000000000000
    6      0.73823323187038    -0.00000000000000     0.00000000000000
    7     -0.00000000000000    -1.47105885280816     0.00000000000000
    8     -0.00000000000000     1.47105885280816     0.00000000000000
    9      0.52918086055107     0.41471970175890    -1.15160020579285
   10     -0.52918086055107     0.41471970175890     1.15160020579285
   11     -0.52918086055107    -0.41471970175890    -1.15160020579285
   12      0.52918086055107    -0.41471970175890     1.15160020579285
 frms,max,avg= 7.2796374E-01 1.4710589E+00   0.000E+00  0.000E+00  0.000E+00 e/A
 length scales= 14.739863580000 14.739863580000 14.739863580000 bohr
              =  7.799999896837  7.799999896837  7.799999896837 angstroms
 prteigrs : about to open file h2oo_EIG
 Fermi (or HOMO) energy (hartree) =  -0.02216   Average Vxc (hartree)=  -0.30082
 Eigenvalues (hartree) for nkpt=   1  k points:
 kpt#   1, nband= 18, wtk=  1.00000, kpt=  0.0000  0.0000  0.0000 (reduced coord)
  -0.78490  -0.75784  -0.72527  -0.70707  -0.28962  -0.22265  -0.21247  -0.20433
  -0.18248  -0.14263  -0.09052  -0.04122  -0.03393  -0.02703  -0.02225  -0.02216
   0.09196   0.25591

,Min el dens=  1.7012E-04 el/bohr^3 at reduced coord.  0.2593  0.7407  0.2000
,   next min=  1.7012E-04 el/bohr^3 at reduced coord.  0.2593  0.7407  0.3000
,Max el dens=  5.6861E-01 el/bohr^3 at reduced coord.  0.4444  0.9259  0.8667
,   next max=  5.6861E-01 el/bohr^3 at reduced coord.  0.0741  0.5556  0.6333

--------------------------------------------------------------------------------
 Components of total free energy (in Hartree) :

    Kinetic energy  =  3.56999817970120E+01
    Hartree energy  =  2.13877156882586E+01
    XC energy       = -1.52422009621485E+01
    Ewald energy    = -3.71921214233243E+01
    PspCore energy  =  2.58304349420184E-02
    Loc. psp. energy= -7.67557619496392E+01
    NL   psp  energy=  9.13712339563160E+00
    >>>>>>>>> Etotal= -6.29394330192677E+01

 Other information on the energy :
    Total energy(eV)= -1.71266911209929E+03 ; Band energy (Ha)=  -8.9327251567E+00
--------------------------------------------------------------------------------

 Cartesian components of stress tensor (hartree/bohr^3)
  sigma(1 1)=  5.31621439E-03  sigma(3 2)=  0.00000000E+00
  sigma(2 2)=  5.60944806E-03  sigma(3 1)=  0.00000000E+00
  sigma(3 3)=  4.70893784E-03  sigma(2 1)=  0.00000000E+00

-Cartesian components of stress tensor (GPa)         [Pressure= -1.5333E+02 GPa]
- sigma(1 1)=  1.56408407E+02  sigma(3 2)=  0.00000000E+00
- sigma(2 2)=  1.65035638E+02  sigma(3 1)=  0.00000000E+00
- sigma(3 3)=  1.38541716E+02  sigma(2 1)=  0.00000000E+00

== END DATASET(S) ==============================================================
================================================================================
  
 -outvars: echo values of variables after computation  --------
     acell    1.4739863580E+01  1.4739863580E+01  1.4739863580E+01 Bohr
       amu    1.59994000E+01  1.00794000E+00
      ecut    1.00000000E+01 Hartree
    etotal   -6.2939433019E+01
     fcart   -9.5187311341E-03 -2.1286358419E-02 -8.6743716710E-03
              9.5187311341E-03 -2.1286358419E-02  8.6743716710E-03
              9.5187311341E-03  2.1286358419E-02 -8.6743716710E-03
             -9.5187311341E-03  2.1286358419E-02  8.6743716710E-03
             -1.4356351569E-02 -2.1895801687E-19  9.5714723040E-20
              1.4356351569E-02 -2.1895801687E-19  9.5714723040E-20
             -6.3386298886E-20 -2.8607541842E-02  9.5714723040E-20
             -6.3386298886E-20  2.8607541842E-02  9.5714723040E-20
              1.0290929952E-02  8.0650146647E-03 -2.2395059864E-02
             -1.0290929952E-02  8.0650146647E-03  2.2395059864E-02
             -1.0290929952E-02 -8.0650146647E-03 -2.2395059864E-02
              1.0290929952E-02 -8.0650146647E-03  2.2395059864E-02
    istwfk      2
       ixc        11
P    mkmem         1
     natom        12
     nband        18
     ngfft        27      27      30
      nkpt         1
      nsym         4
    ntypat         2
       occ    2.000000  2.000000  2.000000  2.000000  2.000000  2.000000
              2.000000  2.000000  2.000000  2.000000  2.000000  2.000000
              2.000000  2.000000  2.000000  2.000000  0.000000  0.000000
     rprim    5.0000000000E-01 -2.8846153846E-01  0.0000000000E+00
              5.0000000000E-01  2.8846153846E-01  0.0000000000E+00
              0.0000000000E+00  0.0000000000E+00  7.1282051282E-01
   spgroup        20
    strten    5.3162143874E-03  5.6094480589E-03  4.7089378446E-03
              0.0000000000E+00  0.0000000000E+00  0.0000000000E+00
    symrel    1  0  0   0  1  0   0  0  1       0 -1  0  -1  0  0   0  0 -1
             -1  0  0   0 -1  0   0  0  1       0  1  0   1  0  0   0  0 -1
     tnons    0.0000000  0.0000000  0.0000000     0.0000000  0.0000000  0.5000000
              0.0000000  0.0000000  0.5000000     0.0000000  0.0000000  0.0000000
    toldfe    1.00000000E-06 Hartree
     typat    1  1  1  1  2  2  2  2  2  2  2  2
    xangst    5.2025999312E+00 -1.3274999824E+00  9.8967998691E-01
              2.5973999656E+00 -1.3274999824E+00  1.7903199763E+00
              2.5973999656E+00  1.3274999824E+00  3.7696799501E+00
              5.2025999312E+00  1.3274999824E+00  4.5703199396E+00
              1.3025999828E+00  0.0000000000E+00  1.5432099838E-16
              6.4973999141E+00  0.0000000000E+00  2.7799999632E+00
              3.8999999484E+00 -1.1249999851E+00  1.3899999816E+00
              3.8999999484E+00  1.1249999851E+00  4.1699999448E+00
              5.8499999226E+00 -2.0249999732E-01  1.3899999816E+00
              1.9499999742E+00 -2.0249999732E-01  1.3899999816E+00
              1.9499999742E+00  2.0249999732E-01  4.1699999448E+00
              5.8499999226E+00  2.0249999732E-01  4.1699999448E+00
     xcart    9.8314890079E+00 -2.5086113977E+00  1.8702241266E+00
              4.9083745721E+00 -2.5086113977E+00  3.3832144314E+00
              4.9083745721E+00  2.5086113977E+00  7.1236626846E+00
              9.8314890079E+00  2.5086113977E+00  8.6366529894E+00
              2.4615572179E+00  0.0000000000E+00  2.9162442228E-16
              1.2278306362E+01  0.0000000000E+00  5.2534385580E+00
              7.3699317900E+00 -2.1259418625E+00  2.6267192790E+00
              7.3699317900E+00  2.1259418625E+00  7.8801578370E+00
              1.1054897685E+01 -3.8266953525E-01  2.6267192790E+00
              3.6849658950E+00 -3.8266953525E-01  2.6267192790E+00
              3.6849658950E+00  3.8266953525E-01  7.8801578370E+00
              1.1054897685E+01  3.8266953525E-01  7.8801578370E+00
      xred    9.6200000000E-01  3.7200000000E-01  1.7800000000E-01
              6.2800000000E-01  3.8000000000E-02  3.2200000000E-01
              3.8000000000E-02  6.2800000000E-01  6.7800000000E-01
              3.7200000000E-01  9.6200000000E-01  8.2200000000E-01
              1.6700000000E-01  1.6700000000E-01  2.7755575616E-17
              8.3300000000E-01  8.3300000000E-01  5.0000000000E-01
              7.5000000000E-01  2.5000000000E-01  2.5000000000E-01
              2.5000000000E-01  7.5000000000E-01  7.5000000000E-01
              7.9500000000E-01  7.0500000000E-01  2.5000000000E-01
              2.9500000000E-01  2.0500000000E-01  2.5000000000E-01
              2.0500000000E-01  2.9500000000E-01  7.5000000000E-01
              7.0500000000E-01  7.9500000000E-01  7.5000000000E-01
     znucl      8.00000    1.00000

================================================================================

- Total cpu        time (s,m,h):          1.3        0.02      0.000
- Total wall clock time (s,m,h):          1.3        0.02      0.000

- For major independent code sections, cpu and wall times (sec),
- as well as % of the total time and number of calls 

- routine                 cpu     %       wall     %      number of calls 
-                                                          (-1=no count)
- timing timab           0.501  38.0      0.500  38.0             13
- fourwf(pot)            0.343  26.0      0.345  26.2            892
- xc:pot/=fourdp         0.065   4.9      0.064   4.9              9
- fourdp                 0.041   3.1      0.055   4.2            113
- invars2                0.041   3.1      0.040   3.0              1
- forces                 0.032   2.4      0.035   2.7              8
- fourwf(den)            0.030   2.3      0.027   2.1            128
- projbd                 0.029   2.2      0.036   2.7           1424
- nonlop(apply)          0.025   1.9      0.018   1.4            892
- vtowfk(ssdiag)         0.019   1.4      0.019   1.4             -1
- ewald                  0.017   1.3      0.017   1.3              1
- stress                 0.017   1.3      0.016   1.2              1
- ewald2                 0.015   1.1      0.014   1.1              1
- symrhg(no FFT)         0.013   1.0      0.008   0.6              8
- getghc-other           0.013   1.0      0.015   1.1             -1
- rwwf                   0.011   0.8      0.011   0.8              1
- abinit(2)              0.011   0.8      0.011   0.8              1
- 49   others            0.019   1.4      0.023   1.7

- subtotal               1.242  94.3      1.254  95.2

================================================================================

 Calculation completed.
.Delivered    0 WARNINGs and   2 COMMENTs to log file.
+Overall time at end (sec) : cpu=          1.3  wall=          1.3
