
     Program PWSCF v.4.3.2      starts on 18Jul2014 at 10: 4:41 

     This program is part of the open-source Quantum ESPRESSO suite
     for quantum simulation of materials; please cite
         "P. Giannozzi et al., J. Phys.:Condens. Matter 21 395502 (2009);
          URL http://www.quantum-espresso.org", 
     in publications or presentations arising from this work. More details at
     http://www.quantum-espresso.org/wiki/index.php/Citing_Quantum-ESPRESSO

     Parallel version (MPI), running on     1 processors

     Current dimensions of program PWSCF are:
     Max number of different atomic species (ntypx) = 10
     Max number of k-points (npk) =  40000
     Max angular momentum in pseudopotentials (lmaxx) =  3
     Waiting for input...
     Reading input from stdin

     Subspace diagonalization in iterative solution of the eigenvalue problem:
     a serial algorithm will be used

     Message from routine setup:
     Dynamics, you should have no symmetries

     G-vector sticks info
     --------------------
     sticks:   dense  smooth     PW     G-vecs:    dense   smooth      PW
     Sum         109     109     37                 6689     6689    1411



     bravais-lattice index     =            6
     lattice parameter (alat)  =       5.3033  a.u.
     unit-cell volume          =    1193.2421 (a.u.)^3
     number of atoms/cell      =            7
     number of atomic types    =            1
     number of electrons       =        21.00
     number of Kohn-Sham states=           15
     kinetic-energy cutoff     =      12.0000  Ry
     charge density cutoff     =      48.0000  Ry
     convergence threshold     =      1.0E-07
     mixing beta               =       0.3000
     number of iterations used =            8  plain     mixing
     Exchange-correlation      =  SLA  PZ   NOGX NOGC ( 1 1 0 0 0)
     EXX-fraction              =        0.00
     nstep                     =           50


     celldm(1)=   5.303300  celldm(2)=   0.000000  celldm(3)=   8.000000
     celldm(4)=   0.000000  celldm(5)=   0.000000  celldm(6)=   0.000000

     crystal axes: (cart. coord. in units of alat)
               a(1) = (   1.000000   0.000000   0.000000 )  
               a(2) = (   0.000000   1.000000   0.000000 )  
               a(3) = (   0.000000   0.000000   8.000000 )  

     reciprocal axes: (cart. coord. in units 2 pi/alat)
               b(1) = (  1.000000  0.000000  0.000000 )  
               b(2) = (  0.000000  1.000000  0.000000 )  
               b(3) = (  0.000000  0.000000  0.125000 )  


     PseudoPot. # 1 for Al read from file:
     /usr/share/espresso/pseudo/Al.pz-vbc.UPF
     MD5 check sum: 614279c88ff8d45c90147292d03ed420
     Pseudo is Norm-conserving, Zval =  3.0
     Generated by new atomic code, or converted to UPF format
     Using radial grid of  171 points,  2 beta functions with: 
                l(1) =   0
                l(2) =   1

     atomic species   valence    mass     pseudopotential
        Al             3.00     1.00000     Al( 1.00)

     16 Sym.Ops. (with inversion)


   Cartesian axes

     site n.     atom                  positions (alat units)
         1           Al  tau(   1) = (   0.5000000   0.5000000  -2.1213200  )
         2           Al  tau(   2) = (   0.0000000   0.0000000  -1.4142130  )
         3           Al  tau(   3) = (   0.5000000   0.5000000  -0.7071070  )
         4           Al  tau(   4) = (   0.0000000   0.0000000   0.0000000  )
         5           Al  tau(   5) = (   0.5000000   0.5000000   0.7071070  )
         6           Al  tau(   6) = (   0.0000000   0.0000000   1.4142130  )
         7           Al  tau(   7) = (   0.5000000   0.5000000   2.1213200  )

     number of k points=     3  Methfessel-Paxton smearing, width (Ry)=  0.0500
                       cart. coord. in units 2pi/alat
        k(    1) = (   0.1250000   0.1250000   0.0000000), wk =   0.5000000
        k(    2) = (   0.1250000   0.3750000   0.0000000), wk =   1.0000000
        k(    3) = (   0.3750000   0.3750000   0.0000000), wk =   0.5000000

     Dense  grid:     6689 G-vectors     FFT dimensions: (  12,  12,  96)

     Largest allocated arrays     est. size (Mb)     dimensions
        Kohn-Sham Wavefunctions         0.20 Mb     (    860,   15)
        NL pseudopotentials             0.37 Mb     (    860,   28)
        Each V/rho on FFT grid          0.21 Mb     (  13824)
        Each G-vector array             0.05 Mb     (   6689)
        G-vector shells                 0.00 Mb     (    351)
     Largest temporary arrays     est. size (Mb)     dimensions
        Auxiliary wavefunctions         0.79 Mb     (    860,   60)
        Each subspace H/S matrix        0.05 Mb     (  60,  60)
        Each <psi_i|beta_j> matrix      0.01 Mb     (     28,   15)
        Arrays for rho mixing           1.69 Mb     (  13824,   8)

     Initial potential from superposition of free atoms
     Check: negative starting charge=   -0.000275

     starting charge   20.98560, renormalised to   21.00000

     negative rho (up, down):  0.276E-03 0.000E+00
     Starting wfc are   28 atomic wfcs

     total cpu time spent up to now is        0.1 secs

     per-process dynamical memory:     4.9 Mb

     Self-consistent Calculation

     iteration #  1     ecut=    12.00 Ry     beta=0.30
     Davidson diagonalization with overlap
     ethr =  1.00E-02,  avg # of iterations =  3.0

     negative rho (up, down):  0.188E-03 0.000E+00

     total cpu time spent up to now is        0.2 secs

     total energy              =     -28.85171199 Ry
     Harris-Foulkes estimate   =     -29.29355902 Ry
     estimated scf accuracy    <       0.93001954 Ry

     iteration #  2     ecut=    12.00 Ry     beta=0.30
     Davidson diagonalization with overlap
     ethr =  4.43E-03,  avg # of iterations =  4.0

     total cpu time spent up to now is        0.4 secs

     total energy              =     -27.67772546 Ry
     Harris-Foulkes estimate   =     -30.53657807 Ry
     estimated scf accuracy    <      39.17988488 Ry

     iteration #  3     ecut=    12.00 Ry     beta=0.30
     Davidson diagonalization with overlap
     ethr =  4.43E-03,  avg # of iterations =  4.7

     total cpu time spent up to now is        0.6 secs

     total energy              =     -29.21379724 Ry
     Harris-Foulkes estimate   =     -29.23663863 Ry
     estimated scf accuracy    <       0.23810993 Ry

     iteration #  4     ecut=    12.00 Ry     beta=0.30
     Davidson diagonalization with overlap
     ethr =  1.13E-03,  avg # of iterations =  1.7

     total cpu time spent up to now is        0.7 secs

     total energy              =     -29.21565695 Ry
     Harris-Foulkes estimate   =     -29.22401501 Ry
     estimated scf accuracy    <       0.04590275 Ry

     iteration #  5     ecut=    12.00 Ry     beta=0.30
     Davidson diagonalization with overlap
     ethr =  2.19E-04,  avg # of iterations =  2.7

     total cpu time spent up to now is        0.8 secs

     total energy              =     -29.21945118 Ry
     Harris-Foulkes estimate   =     -29.22031658 Ry
     estimated scf accuracy    <       0.00640191 Ry

     iteration #  6     ecut=    12.00 Ry     beta=0.30
     Davidson diagonalization with overlap
     ethr =  3.05E-05,  avg # of iterations =  2.7

     total cpu time spent up to now is        0.9 secs

     total energy              =     -29.21991704 Ry
     Harris-Foulkes estimate   =     -29.21994758 Ry
     estimated scf accuracy    <       0.00081227 Ry

     iteration #  7     ecut=    12.00 Ry     beta=0.30
     Davidson diagonalization with overlap
     ethr =  3.87E-06,  avg # of iterations =  3.0

     total cpu time spent up to now is        1.1 secs

     total energy              =     -29.21995471 Ry
     Harris-Foulkes estimate   =     -29.21996878 Ry
     estimated scf accuracy    <       0.00009405 Ry

     iteration #  8     ecut=    12.00 Ry     beta=0.30
     Davidson diagonalization with overlap
     ethr =  4.48E-07,  avg # of iterations =  2.3

     total cpu time spent up to now is        1.2 secs

     total energy              =     -29.21995741 Ry
     Harris-Foulkes estimate   =     -29.21996114 Ry
     estimated scf accuracy    <       0.00002438 Ry

     iteration #  9     ecut=    12.00 Ry     beta=0.30
     Davidson diagonalization with overlap
     ethr =  1.16E-07,  avg # of iterations =  2.7

     total cpu time spent up to now is        1.3 secs

     total energy              =     -29.21995993 Ry
     Harris-Foulkes estimate   =     -29.21996101 Ry
     estimated scf accuracy    <       0.00000902 Ry

     iteration # 10     ecut=    12.00 Ry     beta=0.30
     Davidson diagonalization with overlap
     ethr =  4.29E-08,  avg # of iterations =  1.3

     total cpu time spent up to now is        1.4 secs

     End of self-consistent calculation

          k = 0.1250 0.1250 0.0000 (   822 PWs)   bands (ev):

    -7.0790  -6.5552  -5.7174  -4.5663  -3.1472  -1.4538   0.5130   1.7884
     4.3697   5.5244   5.9953   6.2181   6.7546   7.2251   7.4963

          k = 0.1250 0.3750 0.0000 (   847 PWs)   bands (ev):

    -4.7555  -4.2392  -3.4161  -2.2857  -0.8947  -0.2551   0.2238   0.8005
     1.0422   2.1352   2.7201   3.5256   3.8934   5.1677   6.5172

          k = 0.3750 0.3750 0.0000 (   860 PWs)   bands (ev):

    -2.4879  -1.9832  -1.1752  -0.0657   1.2961   1.3316   1.7993   2.5504
     2.7201   2.8085   3.4481   3.5987   4.1260   4.9120   4.9356

     the Fermi energy is     3.4731 ev

!    total energy              =     -29.21996046 Ry
     Harris-Foulkes estimate   =     -29.21996045 Ry
     estimated scf accuracy    <       0.00000006 Ry

     convergence has been achieved in  10 iterations

     Forces acting on atoms (Ry/au):

     atom    1 type  1   force =     0.00000000    0.00000000    0.01016733
     atom    2 type  1   force =     0.00000000    0.00000000   -0.00113205
     atom    3 type  1   force =     0.00000000    0.00000000    0.00256101
     atom    4 type  1   force =     0.00000000    0.00000000    0.00000000
     atom    5 type  1   force =     0.00000000    0.00000000   -0.00256101
     atom    6 type  1   force =     0.00000000    0.00000000    0.00113205
     atom    7 type  1   force =     0.00000000    0.00000000   -0.01016733

     Total force =     0.014914     Total SCF correction =     0.000133

     Damped Dynamics Calculation

     Entering Dynamics:    iteration =     1

ATOMIC_POSITIONS (alat)
Al       0.500000000   0.500000000  -2.119426902
Al       0.000000000   0.000000000  -1.414423781
Al       0.500000000   0.500000000  -0.706630154
Al       0.000000000   0.000000000   0.000000000
Al       0.500000000   0.500000000   0.706630154
Al       0.000000000   0.000000000   1.414423781
Al       0.500000000   0.500000000   2.119426902



     Writing output data file pwscf.save
     Check: negative starting charge=   -0.000275
     NEW-OLD atomic charge density approx. for the potential
     Check: negative starting charge=   -0.000280

     negative rho (up, down):  0.172E-05 0.000E+00

     total cpu time spent up to now is        1.5 secs

     per-process dynamical memory:     5.4 Mb

     Self-consistent Calculation

     iteration #  1     ecut=    12.00 Ry     beta=0.30
     Davidson diagonalization with overlap
     ethr =  1.00E-06,  avg # of iterations =  2.7

     Threshold (ethr) on eigenvalues was too large:
     Diagonalizing with lowered threshold

     Davidson diagonalization with overlap
     ethr =  7.70E-08,  avg # of iterations =  1.7

     negative rho (up, down):  0.276E-06 0.000E+00

     total cpu time spent up to now is        1.7 secs

     total energy              =     -29.22016760 Ry
     Harris-Foulkes estimate   =     -29.22017414 Ry
     estimated scf accuracy    <       0.00001562 Ry

     iteration #  2     ecut=    12.00 Ry     beta=0.30
     Davidson diagonalization with overlap
     ethr =  7.44E-08,  avg # of iterations =  3.0

     negative rho (up, down):  0.218E-06 0.000E+00

     total cpu time spent up to now is        1.8 secs

     total energy              =     -29.22015983 Ry
     Harris-Foulkes estimate   =     -29.22018013 Ry
     estimated scf accuracy    <       0.00022385 Ry

     iteration #  3     ecut=    12.00 Ry     beta=0.30
     Davidson diagonalization with overlap
     ethr =  7.44E-08,  avg # of iterations =  2.7

     negative rho (up, down):  0.153E-07 0.000E+00

     total cpu time spent up to now is        2.0 secs

     total energy              =     -29.22017081 Ry
     Harris-Foulkes estimate   =     -29.22017187 Ry
     estimated scf accuracy    <       0.00001110 Ry

     iteration #  4     ecut=    12.00 Ry     beta=0.30
     Davidson diagonalization with overlap
     ethr =  5.29E-08,  avg # of iterations =  1.7

     total cpu time spent up to now is        2.1 secs

     total energy              =     -29.22017130 Ry
     Harris-Foulkes estimate   =     -29.22017147 Ry
     estimated scf accuracy    <       0.00000088 Ry

     iteration #  5     ecut=    12.00 Ry     beta=0.30
     Davidson diagonalization with overlap
     ethr =  4.18E-09,  avg # of iterations =  2.0

     total cpu time spent up to now is        2.2 secs

     total energy              =     -29.22017143 Ry
     Harris-Foulkes estimate   =     -29.22017141 Ry
     estimated scf accuracy    <       0.00000011 Ry

     iteration #  6     ecut=    12.00 Ry     beta=0.30
     Davidson diagonalization with overlap
     ethr =  5.10E-10,  avg # of iterations =  2.0

     total cpu time spent up to now is        2.3 secs

     End of self-consistent calculation

          k = 0.1250 0.1250 0.0000 (   822 PWs)   bands (ev):

    -7.0837  -6.5611  -5.7283  -4.5716  -3.1454  -1.4514   0.5172   1.7927
     4.3755   5.5196   5.9889   6.2244   6.7420   7.2243   7.5028

          k = 0.1250 0.3750 0.0000 (   847 PWs)   bands (ev):

    -4.7602  -4.2451  -3.4270  -2.2911  -0.8932  -0.2598   0.2178   0.8027
     1.0311   2.1294   2.7241   3.5270   3.8968   5.1705   6.5228

          k = 0.3750 0.3750 0.0000 (   860 PWs)   bands (ev):

    -2.4926  -1.9892  -1.1863  -0.0714   1.2973   1.3269   1.7930   2.5382
     2.7154   2.8077   3.4451   3.5921   4.1163   4.9140   4.9393

     the Fermi energy is     3.4724 ev

!    total energy              =     -29.22017145 Ry
     Harris-Foulkes estimate   =     -29.22017145 Ry
     estimated scf accuracy    <       0.00000001 Ry

     convergence has been achieved in   6 iterations

     Forces acting on atoms (Ry/au):

     atom    1 type  1   force =     0.00000000    0.00000000    0.00948585
     atom    2 type  1   force =     0.00000000    0.00000000   -0.00039731
     atom    3 type  1   force =     0.00000000    0.00000000    0.00223027
     atom    4 type  1   force =     0.00000000    0.00000000    0.00000000
     atom    5 type  1   force =     0.00000000    0.00000000   -0.00223027
     atom    6 type  1   force =     0.00000000    0.00000000    0.00039731
     atom    7 type  1   force =     0.00000000    0.00000000   -0.00948585

     Total force =     0.013792     Total SCF correction =     0.000087

     Entering Dynamics:    iteration =     2

     <vel(dt)|acc(dt)> =   0.99783787

ATOMIC_POSITIONS (alat)
Al       0.500000000   0.500000000  -2.093713145
Al       0.000000000   0.000000000  -1.415574926
Al       0.500000000   0.500000000  -0.700566565
Al       0.000000000   0.000000000   0.000000000
Al       0.500000000   0.500000000   0.700566565
Al       0.000000000   0.000000000   1.415574926
Al       0.500000000   0.500000000   2.093713145



     Writing output data file pwscf.save

     first order wave-functions extrapolation
     Check: negative starting charge=   -0.000280
     first order charge density extrapolation
     Check: negative starting charge=   -0.000283

     negative rho (up, down):  0.300E-03 0.000E+00

     total cpu time spent up to now is        2.4 secs

     per-process dynamical memory:     5.4 Mb

     Self-consistent Calculation

     iteration #  1     ecut=    12.00 Ry     beta=0.30
     Davidson diagonalization with overlap
     ethr =  1.00E-06,  avg # of iterations =  7.3

     negative rho (up, down):  0.171E-03 0.000E+00

     total cpu time spent up to now is        2.7 secs

     total energy              =     -29.22113544 Ry
     Harris-Foulkes estimate   =     -29.22194293 Ry
     estimated scf accuracy    <       0.00202310 Ry

     iteration #  2     ecut=    12.00 Ry     beta=0.30
     Davidson diagonalization with overlap
     ethr =  9.63E-06,  avg # of iterations =  3.3

     negative rho (up, down):  0.127E-03 0.000E+00

     total cpu time spent up to now is        2.8 secs

     total energy              =     -29.22122037 Ry
     Harris-Foulkes estimate   =     -29.22161705 Ry
     estimated scf accuracy    <       0.00139045 Ry

     iteration #  3     ecut=    12.00 Ry     beta=0.30
     Davidson diagonalization with overlap
     ethr =  6.62E-06,  avg # of iterations =  2.7

     negative rho (up, down):  0.104E-03 0.000E+00

     total cpu time spent up to now is        2.9 secs

     total energy              =     -29.22109942 Ry
     Harris-Foulkes estimate   =     -29.22182841 Ry
     estimated scf accuracy    <       0.00819749 Ry

     iteration #  4     ecut=    12.00 Ry     beta=0.30
     Davidson diagonalization with overlap
     ethr =  6.62E-06,  avg # of iterations =  2.7

     negative rho (up, down):  0.620E-04 0.000E+00

     total cpu time spent up to now is        3.1 secs

     total energy              =     -29.22147684 Ry
     Harris-Foulkes estimate   =     -29.22153081 Ry
     estimated scf accuracy    <       0.00043824 Ry

     iteration #  5     ecut=    12.00 Ry     beta=0.30
     Davidson diagonalization with overlap
     ethr =  2.09E-06,  avg # of iterations =  1.7

     negative rho (up, down):  0.720E-05 0.000E+00

     total cpu time spent up to now is        3.2 secs

     total energy              =     -29.22150544 Ry
     Harris-Foulkes estimate   =     -29.22150394 Ry
     estimated scf accuracy    <       0.00001830 Ry

     iteration #  6     ecut=    12.00 Ry     beta=0.30
     Davidson diagonalization with overlap
     ethr =  8.71E-08,  avg # of iterations =  3.0

     negative rho (up, down):  0.196E-07 0.000E+00

     total cpu time spent up to now is        3.3 secs

     total energy              =     -29.22150836 Ry
     Harris-Foulkes estimate   =     -29.22150785 Ry
     estimated scf accuracy    <       0.00000320 Ry

     iteration #  7     ecut=    12.00 Ry     beta=0.30
     Davidson diagonalization with overlap
     ethr =  1.53E-08,  avg # of iterations =  2.0

     total cpu time spent up to now is        3.4 secs

     total energy              =     -29.22150870 Ry
     Harris-Foulkes estimate   =     -29.22150895 Ry
     estimated scf accuracy    <       0.00000238 Ry

     iteration #  8     ecut=    12.00 Ry     beta=0.30
     Davidson diagonalization with overlap
     ethr =  1.13E-08,  avg # of iterations =  1.7

     total cpu time spent up to now is        3.5 secs

     End of self-consistent calculation

          k = 0.1250 0.1250 0.0000 (   822 PWs)   bands (ev):

    -7.1561  -6.6568  -5.8746  -4.6425  -3.1307  -1.4235   0.5702   1.8487
     4.4502   5.4428   5.8814   6.2924   6.5711   7.1848   7.5273

          k = 0.1250 0.3750 0.0000 (   847 PWs)   bands (ev):

    -4.8326  -4.3410  -3.5741  -2.3642  -0.8824  -0.3332   0.1195   0.8279
     0.8813   2.0513   2.7733   3.5379   3.9413   5.2024   6.5934

          k = 0.3750 0.3750 0.0000 (   860 PWs)   bands (ev):

    -2.5654  -2.0863  -1.3361  -0.1475   1.2518   1.3034   1.6894   2.3737
     2.6412   2.7810   3.4004   3.5045   3.9844   4.9317   4.9864

     the Fermi energy is     3.4552 ev

!    total energy              =     -29.22150883 Ry
     Harris-Foulkes estimate   =     -29.22150890 Ry
     estimated scf accuracy    <       0.00000009 Ry

     convergence has been achieved in   8 iterations

     Forces acting on atoms (Ry/au):

     atom    1 type  1   force =     0.00000000    0.00000000    0.00020877
     atom    2 type  1   force =     0.00000000    0.00000000    0.00927417
     atom    3 type  1   force =     0.00000000    0.00000000   -0.00149403
     atom    4 type  1   force =     0.00000000    0.00000000    0.00000000
     atom    5 type  1   force =     0.00000000    0.00000000    0.00149403
     atom    6 type  1   force =     0.00000000    0.00000000   -0.00927417
     atom    7 type  1   force =     0.00000000    0.00000000   -0.00020877

     Total force =     0.013288     Total SCF correction =     0.000516

     Entering Dynamics:    iteration =     3

     <vel(dt)|acc(dt)> =   0.02853355

ATOMIC_POSITIONS (alat)
Al       0.500000000   0.500000000  -2.093468459
Al       0.000000000   0.000000000  -1.413288109
Al       0.500000000   0.500000000  -0.700881202
Al       0.000000000   0.000000000   0.000000000
Al       0.500000000   0.500000000   0.700881202
Al       0.000000000   0.000000000   1.413288109
Al       0.500000000   0.500000000   2.093468459



     Writing output data file pwscf.save

     second order wave-functions extrapolation
     Check: negative starting charge=   -0.000283
     second order charge density extrapolation
     Check: negative starting charge=   -0.000284

     negative rho (up, down):  0.132E-03 0.000E+00

     total cpu time spent up to now is        3.7 secs

     per-process dynamical memory:     5.4 Mb

     Self-consistent Calculation

     iteration #  1     ecut=    12.00 Ry     beta=0.30
     Davidson diagonalization with overlap
     ethr =  1.00E-06,  avg # of iterations =  4.3

     negative rho (up, down):  0.778E-04 0.000E+00

     total cpu time spent up to now is        3.9 secs

     total energy              =     -29.22162947 Ry
     Harris-Foulkes estimate   =     -29.22174569 Ry
     estimated scf accuracy    <       0.00025207 Ry

     iteration #  2     ecut=    12.00 Ry     beta=0.30
     Davidson diagonalization with overlap
     ethr =  1.20E-06,  avg # of iterations =  4.0

     negative rho (up, down):  0.708E-04 0.000E+00

     total cpu time spent up to now is        4.0 secs

     total energy              =     -29.22153534 Ry
     Harris-Foulkes estimate   =     -29.22184824 Ry
     estimated scf accuracy    <       0.00273539 Ry

     iteration #  3     ecut=    12.00 Ry     beta=0.30
     Davidson diagonalization with overlap
     ethr =  1.20E-06,  avg # of iterations =  3.0

     negative rho (up, down):  0.578E-04 0.000E+00

     total cpu time spent up to now is        4.1 secs

     total energy              =     -29.22168689 Ry
     Harris-Foulkes estimate   =     -29.22175562 Ry
     estimated scf accuracy    <       0.00073144 Ry

     iteration #  4     ecut=    12.00 Ry     beta=0.30
     Davidson diagonalization with overlap
     ethr =  1.20E-06,  avg # of iterations =  2.3

     negative rho (up, down):  0.315E-04 0.000E+00

     total cpu time spent up to now is        4.2 secs

     total energy              =     -29.22172184 Ry
     Harris-Foulkes estimate   =     -29.22172070 Ry
     estimated scf accuracy    <       0.00000102 Ry

     iteration #  5     ecut=    12.00 Ry     beta=0.30
     Davidson diagonalization with overlap
     ethr =  4.85E-09,  avg # of iterations =  3.0

     negative rho (up, down):  0.144E-06 0.000E+00

     total cpu time spent up to now is        4.4 secs

     total energy              =     -29.22172320 Ry
     Harris-Foulkes estimate   =     -29.22172210 Ry
     estimated scf accuracy    <       0.00000044 Ry

     iteration #  6     ecut=    12.00 Ry     beta=0.30
     Davidson diagonalization with overlap
     ethr =  2.08E-09,  avg # of iterations =  1.7

     total cpu time spent up to now is        4.5 secs

     End of self-consistent calculation

          k = 0.1250 0.1250 0.0000 (   822 PWs)   bands (ev):

    -7.1607  -6.6596  -5.8654  -4.6399  -3.1358  -1.4238   0.5705   1.8486
     4.4534   5.4383   5.8792   6.2940   6.5823   7.1811   7.5308

          k = 0.1250 0.3750 0.0000 (   847 PWs)   bands (ev):

    -4.8371  -4.3438  -3.5650  -2.3617  -0.8875  -0.3376   0.1168   0.8276
     0.8908   2.0540   2.7730   3.5332   3.9419   5.2013   6.5964

          k = 0.3750 0.3750 0.0000 (   860 PWs)   bands (ev):

    -2.5700  -2.0891  -1.3269  -0.1449   1.2473   1.2982   1.6871   2.3843
     2.6366   2.7790   3.3990   3.5076   3.9923   4.9240   4.9867

     the Fermi energy is     3.4542 ev

!    total energy              =     -29.22172328 Ry
     Harris-Foulkes estimate   =     -29.22172323 Ry
     estimated scf accuracy    <       0.00000002 Ry

     convergence has been achieved in   6 iterations

     Forces acting on atoms (Ry/au):

     atom    1 type  1   force =     0.00000000    0.00000000    0.00088316
     atom    2 type  1   force =     0.00000000    0.00000000    0.00795302
     atom    3 type  1   force =     0.00000000    0.00000000   -0.00083472
     atom    4 type  1   force =     0.00000000    0.00000000    0.00000000
     atom    5 type  1   force =     0.00000000    0.00000000    0.00083472
     atom    6 type  1   force =     0.00000000    0.00000000   -0.00795302
     atom    7 type  1   force =     0.00000000    0.00000000   -0.00088316

     Total force =     0.011378     Total SCF correction =     0.000138

     Entering Dynamics:    iteration =     4

     <vel(dt)|acc(dt)> =   0.85151046

ATOMIC_POSITIONS (alat)
Al       0.500000000   0.500000000  -2.075338381
Al       0.000000000   0.000000000  -1.388823227
Al       0.500000000   0.500000000  -0.700298472
Al       0.000000000   0.000000000   0.000000000
Al       0.500000000   0.500000000   0.700298472
Al       0.000000000   0.000000000   1.388823227
Al       0.500000000   0.500000000   2.075338381



     Writing output data file pwscf.save

     second order wave-functions extrapolation
     Check: negative starting charge=   -0.000284
     second order charge density extrapolation
     Check: negative starting charge=   -0.000295

     negative rho (up, down):  0.804E-04 0.000E+00

     total cpu time spent up to now is        4.6 secs

     per-process dynamical memory:     5.4 Mb

     Self-consistent Calculation

     iteration #  1     ecut=    12.00 Ry     beta=0.30
     Davidson diagonalization with overlap
     ethr =  1.00E-06,  avg # of iterations =  4.7

     negative rho (up, down):  0.455E-04 0.000E+00

     total cpu time spent up to now is        4.8 secs

     total energy              =     -29.22108554 Ry
     Harris-Foulkes estimate   =     -29.22309056 Ry
     estimated scf accuracy    <       0.00402742 Ry

     iteration #  2     ecut=    12.00 Ry     beta=0.30
     Davidson diagonalization with overlap
     ethr =  1.92E-05,  avg # of iterations =  6.3

     negative rho (up, down):  0.428E-04 0.000E+00

     total cpu time spent up to now is        5.0 secs

     total energy              =     -29.21701993 Ry
     Harris-Foulkes estimate   =     -29.22899360 Ry
     estimated scf accuracy    <       0.14865151 Ry

     iteration #  3     ecut=    12.00 Ry     beta=0.30
     Davidson diagonalization with overlap
     ethr =  1.92E-05,  avg # of iterations =  4.0

     negative rho (up, down):  0.337E-04 0.000E+00

     total cpu time spent up to now is        5.1 secs

     total energy              =     -29.22288980 Ry
     Harris-Foulkes estimate   =     -29.22292482 Ry
     estimated scf accuracy    <       0.00016178 Ry

     iteration #  4     ecut=    12.00 Ry     beta=0.30
     Davidson diagonalization with overlap
     ethr =  7.70E-07,  avg # of iterations =  2.7

     negative rho (up, down):  0.178E-04 0.000E+00

     total cpu time spent up to now is        5.2 secs

     total energy              =     -29.22290933 Ry
     Harris-Foulkes estimate   =     -29.22290791 Ry
     estimated scf accuracy    <       0.00000069 Ry

     iteration #  5     ecut=    12.00 Ry     beta=0.30
     Davidson diagonalization with overlap
     ethr =  3.30E-09,  avg # of iterations =  3.7

     negative rho (up, down):  0.714E-06 0.000E+00

     total cpu time spent up to now is        5.4 secs

     total energy              =     -29.22291081 Ry
     Harris-Foulkes estimate   =     -29.22290975 Ry
     estimated scf accuracy    <       0.00000035 Ry

     iteration #  6     ecut=    12.00 Ry     beta=0.30
     Davidson diagonalization with overlap
     ethr =  1.65E-09,  avg # of iterations =  1.3

     total cpu time spent up to now is        5.5 secs

     End of self-consistent calculation

          k = 0.1250 0.1250 0.0000 (   822 PWs)   bands (ev):

    -7.2595  -6.7556  -5.8559  -4.6515  -3.1803  -1.4118   0.6026   1.8830
     4.5306   5.3342   5.7766   6.3391   6.5976   7.1079   7.6091

          k = 0.1250 0.3750 0.0000 (   847 PWs)   bands (ev):

    -4.9357  -4.4400  -3.5566  -2.3749  -0.9353  -0.4370   0.0187   0.8385
     0.9006   2.0401   2.7964   3.4919   3.9766   5.2071   6.6681

          k = 0.3750 0.3750 0.0000 (   860 PWs)   bands (ev):

    -2.6694  -2.1868  -1.3190  -0.1597   1.1456   1.2467   1.5868   2.3965
     2.5354   2.7279   3.3629   3.4928   3.9957   4.8525   5.0156

     the Fermi energy is     3.4332 ev

!    total energy              =     -29.22291097 Ry
     Harris-Foulkes estimate   =     -29.22291083 Ry
     estimated scf accuracy    <       0.00000004 Ry

     convergence has been achieved in   6 iterations

     Forces acting on atoms (Ry/au):

     atom    1 type  1   force =     0.00000000    0.00000000    0.00181700
     atom    2 type  1   force =     0.00000000    0.00000000   -0.00120521
     atom    3 type  1   force =     0.00000000    0.00000000    0.00496772
     atom    4 type  1   force =     0.00000000    0.00000000    0.00000000
     atom    5 type  1   force =     0.00000000    0.00000000   -0.00496772
     atom    6 type  1   force =     0.00000000    0.00000000    0.00120521
     atom    7 type  1   force =     0.00000000    0.00000000   -0.00181700

     Total force =     0.007672     Total SCF correction =     0.000146

     Entering Dynamics:    iteration =     5

     <vel(dt)|acc(dt)> =   0.82290091

ATOMIC_POSITIONS (alat)
Al       0.500000000   0.500000000  -2.046347564
Al       0.000000000   0.000000000  -1.377479649
Al       0.500000000   0.500000000  -0.691915271
Al       0.000000000   0.000000000   0.000000000
Al       0.500000000   0.500000000   0.691915271
Al       0.000000000   0.000000000   1.377479649
Al       0.500000000   0.500000000   2.046347564



     Writing output data file pwscf.save

     second order wave-functions extrapolation
     Check: negative starting charge=   -0.000295
     second order charge density extrapolation
     Check: negative starting charge=   -0.000288

     negative rho (up, down):  0.189E-03 0.000E+00

     total cpu time spent up to now is        5.6 secs

     per-process dynamical memory:     5.4 Mb

     Self-consistent Calculation

     iteration #  1     ecut=    12.00 Ry     beta=0.30
     Davidson diagonalization with overlap
     ethr =  1.00E-06,  avg # of iterations =  6.0

     negative rho (up, down):  0.115E-03 0.000E+00

     total cpu time spent up to now is        5.8 secs

     total energy              =     -29.21804022 Ry
     Harris-Foulkes estimate   =     -29.22321903 Ry
     estimated scf accuracy    <       0.01037411 Ry

     iteration #  2     ecut=    12.00 Ry     beta=0.30
     Davidson diagonalization with overlap
     ethr =  4.94E-05,  avg # of iterations =  4.3

     negative rho (up, down):  0.107E-03 0.000E+00

     total cpu time spent up to now is        6.0 secs

     total energy              =     -29.20668207 Ry
     Harris-Foulkes estimate   =     -29.23905656 Ry
     estimated scf accuracy    <       0.41006900 Ry

     iteration #  3     ecut=    12.00 Ry     beta=0.30
     Davidson diagonalization with overlap
     ethr =  4.94E-05,  avg # of iterations =  3.3

     negative rho (up, down):  0.803E-04 0.000E+00

     total cpu time spent up to now is        6.1 secs

     total energy              =     -29.22276401 Ry
     Harris-Foulkes estimate   =     -29.22278000 Ry
     estimated scf accuracy    <       0.00007881 Ry

     iteration #  4     ecut=    12.00 Ry     beta=0.30
     Davidson diagonalization with overlap
     ethr =  3.75E-07,  avg # of iterations =  4.0

     negative rho (up, down):  0.267E-04 0.000E+00

     total cpu time spent up to now is        6.3 secs

     total energy              =     -29.22277763 Ry
     Harris-Foulkes estimate   =     -29.22277581 Ry
     estimated scf accuracy    <       0.00000669 Ry

     iteration #  5     ecut=    12.00 Ry     beta=0.30
     Davidson diagonalization with overlap
     ethr =  3.18E-08,  avg # of iterations =  2.0

     negative rho (up, down):  0.277E-05 0.000E+00

     total cpu time spent up to now is        6.4 secs

     total energy              =     -29.22277931 Ry
     Harris-Foulkes estimate   =     -29.22277828 Ry
     estimated scf accuracy    <       0.00000137 Ry

     iteration #  6     ecut=    12.00 Ry     beta=0.30
     Davidson diagonalization with overlap
     ethr =  6.50E-09,  avg # of iterations =  2.0

     total cpu time spent up to now is        6.5 secs

     total energy              =     -29.22277984 Ry
     Harris-Foulkes estimate   =     -29.22277942 Ry
     estimated scf accuracy    <       0.00000018 Ry

     iteration #  7     ecut=    12.00 Ry     beta=0.30
     Davidson diagonalization with overlap
     ethr =  8.46E-10,  avg # of iterations =  2.3

     total cpu time spent up to now is        6.6 secs

     total energy              =     -29.22277988 Ry
     Harris-Foulkes estimate   =     -29.22277987 Ry
     estimated scf accuracy    <       0.00000016 Ry

     iteration #  8     ecut=    12.00 Ry     beta=0.30
     Davidson diagonalization with overlap
     ethr =  7.56E-10,  avg # of iterations =  1.3

     total cpu time spent up to now is        6.7 secs

     End of self-consistent calculation

          k = 0.1250 0.1250 0.0000 (   822 PWs)   bands (ev):

    -7.3761  -6.8715  -5.9765  -4.7180  -3.1866  -1.3883   0.6592   1.9461
     4.6254   5.2112   5.6501   6.3921   6.4580   7.0266   7.6209

          k = 0.1250 0.3750 0.0000 (   847 PWs)   bands (ev):

    -5.0521  -4.5564  -3.6782  -2.4441  -0.9485  -0.5538  -0.1001   0.7778
     0.8596   1.9668   2.8458   3.4846   4.0292   5.2300   6.7556

          k = 0.3750 0.3750 0.0000 (   860 PWs)   bands (ev):

    -2.7867  -2.3044  -1.4434  -0.2324   1.0254   1.2275   1.4639   2.2613
     2.4162   2.6587   3.3354   3.4095   3.8850   4.8369   5.0364

     the Fermi energy is     3.4116 ev

!    total energy              =     -29.22277989 Ry
     Harris-Foulkes estimate   =     -29.22277989 Ry
     estimated scf accuracy    <          7.3E-09 Ry

     convergence has been achieved in   8 iterations

     Forces acting on atoms (Ry/au):

     atom    1 type  1   force =     0.00000000    0.00000000   -0.00584210
     atom    2 type  1   force =     0.00000000    0.00000000    0.00308259
     atom    3 type  1   force =     0.00000000    0.00000000    0.00299291
     atom    4 type  1   force =     0.00000000    0.00000000    0.00000000
     atom    5 type  1   force =     0.00000000    0.00000000   -0.00299291
     atom    6 type  1   force =     0.00000000    0.00000000   -0.00308259
     atom    7 type  1   force =     0.00000000    0.00000000    0.00584210

     Total force =     0.010256     Total SCF correction =     0.000135

     Entering Dynamics:    iteration =     6

     <vel(dt)|acc(dt)> =  -0.98565845

ATOMIC_POSITIONS (alat)
Al       0.500000000   0.500000000  -2.059593250
Al       0.000000000   0.000000000  -1.382780032
Al       0.500000000   0.500000000  -0.693255297
Al       0.000000000   0.000000000   0.000000000
Al       0.500000000   0.500000000   0.693255297
Al       0.000000000   0.000000000   1.382780032
Al       0.500000000   0.500000000   2.059593250



     Writing output data file pwscf.save

     second order wave-functions extrapolation
     Message from extrapolate_wfcs: 
     the matrix <psi(t-dt)|psi(t)> has  1 small (< 0.1) eigenvalues
     Check: negative starting charge=   -0.000288
     second order charge density extrapolation
     Check: negative starting charge=   -0.000299

     negative rho (up, down):  0.105E-04 0.000E+00

     total cpu time spent up to now is        6.8 secs

     per-process dynamical memory:     5.4 Mb

     Self-consistent Calculation

     iteration #  1     ecut=    12.00 Ry     beta=0.30
     Davidson diagonalization with overlap
     ethr =  1.00E-06,  avg # of iterations =  6.7

     negative rho (up, down):  0.461E-05 0.000E+00

     total cpu time spent up to now is        7.0 secs

     total energy              =     -29.22312685 Ry
     Harris-Foulkes estimate   =     -29.22317819 Ry
     estimated scf accuracy    <       0.00010692 Ry

     iteration #  2     ecut=    12.00 Ry     beta=0.30
     Davidson diagonalization with overlap
     ethr =  5.09E-07,  avg # of iterations =  3.3

     negative rho (up, down):  0.408E-05 0.000E+00

     total cpu time spent up to now is        7.2 secs

     total energy              =     -29.22305737 Ry
     Harris-Foulkes estimate   =     -29.22326615 Ry
     estimated scf accuracy    <       0.00226303 Ry

     iteration #  3     ecut=    12.00 Ry     beta=0.30
     Davidson diagonalization with overlap
     ethr =  5.09E-07,  avg # of iterations =  3.0

     negative rho (up, down):  0.263E-05 0.000E+00

     total cpu time spent up to now is        7.3 secs

     total energy              =     -29.22316438 Ry
     Harris-Foulkes estimate   =     -29.22317480 Ry
     estimated scf accuracy    <       0.00008167 Ry

     iteration #  4     ecut=    12.00 Ry     beta=0.30
     Davidson diagonalization with overlap
     ethr =  3.89E-07,  avg # of iterations =  1.3

     negative rho (up, down):  0.241E-06 0.000E+00

     total cpu time spent up to now is        7.4 secs

     total energy              =     -29.22316957 Ry
     Harris-Foulkes estimate   =     -29.22316937 Ry
     estimated scf accuracy    <       0.00000046 Ry

     iteration #  5     ecut=    12.00 Ry     beta=0.30
     Davidson diagonalization with overlap
     ethr =  2.17E-09,  avg # of iterations =  3.3

     total cpu time spent up to now is        7.5 secs

     total energy              =     -29.22316988 Ry
     Harris-Foulkes estimate   =     -29.22316976 Ry
     estimated scf accuracy    <       0.00000028 Ry

     iteration #  6     ecut=    12.00 Ry     beta=0.30
     Davidson diagonalization with overlap
     ethr =  1.31E-09,  avg # of iterations =  1.3

     total cpu time spent up to now is        7.6 secs

     End of self-consistent calculation

          k = 0.1250 0.1250 0.0000 (   822 PWs)   bands (ev):

    -7.3265  -6.8087  -5.9286  -4.6902  -3.1792  -1.4012   0.6326   1.9161
     4.5839   5.2638   5.7192   6.3725   6.5133   7.0590   7.5824

          k = 0.1250 0.3750 0.0000 (   847 PWs)   bands (ev):

    -5.0026  -4.4933  -3.6298  -2.4150  -0.9383  -0.5036  -0.0358   0.8266
     0.8478   1.9978   2.8237   3.4917   4.0034   5.2171   6.7179

          k = 0.3750 0.3750 0.0000 (   860 PWs)   bands (ev):

    -2.7368  -2.2406  -1.3937  -0.2018   1.0768   1.2406   1.5308   2.3151
     2.4676   2.6967   3.3487   3.4447   3.9294   4.8514   5.0436

     the Fermi energy is     3.4224 ev

!    total energy              =     -29.22316990 Ry
     Harris-Foulkes estimate   =     -29.22316989 Ry
     estimated scf accuracy    <       0.00000001 Ry

     convergence has been achieved in   6 iterations

     Forces acting on atoms (Ry/au):

     atom    1 type  1   force =     0.00000000    0.00000000   -0.00221071
     atom    2 type  1   force =     0.00000000    0.00000000    0.00181059
     atom    3 type  1   force =     0.00000000    0.00000000    0.00219994
     atom    4 type  1   force =     0.00000000    0.00000000    0.00000000
     atom    5 type  1   force =     0.00000000    0.00000000   -0.00219994
     atom    6 type  1   force =     0.00000000    0.00000000   -0.00181059
     atom    7 type  1   force =     0.00000000    0.00000000    0.00221071

     Total force =     0.005100     Total SCF correction =     0.000142

     Entering Dynamics:    iteration =     7

     <vel(dt)|acc(dt)> =   0.91542099

ATOMIC_POSITIONS (alat)
Al       0.500000000   0.500000000  -2.077233610
Al       0.000000000   0.000000000  -1.382255273
Al       0.500000000   0.500000000  -0.693805567
Al       0.000000000   0.000000000   0.000000000
Al       0.500000000   0.500000000   0.693805567
Al       0.000000000   0.000000000   1.382255273
Al       0.500000000   0.500000000   2.077233610



     Writing output data file pwscf.save

     second order wave-functions extrapolation
     Message from extrapolate_wfcs: 
     the matrix <psi(t-dt)|psi(t)> has  1 small (< 0.1) eigenvalues
     Check: negative starting charge=   -0.000299
     second order charge density extrapolation
     Check: negative starting charge=   -0.000294

     negative rho (up, down):  0.430E-04 0.000E+00

     total cpu time spent up to now is        7.8 secs

     per-process dynamical memory:     5.4 Mb

     Self-consistent Calculation

     iteration #  1     ecut=    12.00 Ry     beta=0.30
     Davidson diagonalization with overlap
     ethr =  1.00E-06,  avg # of iterations = 12.3

     negative rho (up, down):  0.236E-04 0.000E+00

     total cpu time spent up to now is        8.0 secs

     total energy              =     -29.22251189 Ry
     Harris-Foulkes estimate   =     -29.22302661 Ry
     estimated scf accuracy    <       0.00108298 Ry

     iteration #  2     ecut=    12.00 Ry     beta=0.30
     Davidson diagonalization with overlap
     ethr =  5.16E-06,  avg # of iterations =  3.3

     negative rho (up, down):  0.221E-04 0.000E+00

     total cpu time spent up to now is        8.1 secs

     total energy              =     -29.22159909 Ry
     Harris-Foulkes estimate   =     -29.22418865 Ry
     estimated scf accuracy    <       0.03169314 Ry

     iteration #  3     ecut=    12.00 Ry     beta=0.30
     Davidson diagonalization with overlap
     ethr =  5.16E-06,  avg # of iterations =  3.0

     negative rho (up, down):  0.117E-04 0.000E+00

     total cpu time spent up to now is        8.3 secs

     total energy              =     -29.22291738 Ry
     Harris-Foulkes estimate   =     -29.22292245 Ry
     estimated scf accuracy    <       0.00006026 Ry

     iteration #  4     ecut=    12.00 Ry     beta=0.30
     Davidson diagonalization with overlap
     ethr =  2.87E-07,  avg # of iterations =  1.7

     negative rho (up, down):  0.289E-05 0.000E+00

     total cpu time spent up to now is        8.4 secs

     total energy              =     -29.22292039 Ry
     Harris-Foulkes estimate   =     -29.22292039 Ry
     estimated scf accuracy    <       0.00000360 Ry

     iteration #  5     ecut=    12.00 Ry     beta=0.30
     Davidson diagonalization with overlap
     ethr =  1.72E-08,  avg # of iterations =  2.3

     negative rho (up, down):  0.821E-06 0.000E+00

     total cpu time spent up to now is        8.5 secs

     total energy              =     -29.22292093 Ry
     Harris-Foulkes estimate   =     -29.22292096 Ry
     estimated scf accuracy    <       0.00000176 Ry

     iteration #  6     ecut=    12.00 Ry     beta=0.30
     Davidson diagonalization with overlap
     ethr =  8.38E-09,  avg # of iterations =  1.7

     total cpu time spent up to now is        8.6 secs

     total energy              =     -29.22292119 Ry
     Harris-Foulkes estimate   =     -29.22292108 Ry
     estimated scf accuracy    <       0.00000035 Ry

     iteration #  7     ecut=    12.00 Ry     beta=0.30
     Davidson diagonalization with overlap
     ethr =  1.69E-09,  avg # of iterations =  2.3

     total cpu time spent up to now is        8.7 secs

     total energy              =     -29.22292122 Ry
     Harris-Foulkes estimate   =     -29.22292124 Ry
     estimated scf accuracy    <       0.00000022 Ry

     iteration #  8     ecut=    12.00 Ry     beta=0.30
     Davidson diagonalization with overlap
     ethr =  1.04E-09,  avg # of iterations =  1.7

     total cpu time spent up to now is        8.8 secs

     End of self-consistent calculation

          k = 0.1250 0.1250 0.0000 (   822 PWs)   bands (ev):

    -7.2820  -6.7295  -5.8369  -4.6422  -3.1805  -1.4227   0.5953   1.8759
     4.5358   5.3104   5.8058   6.3390   6.6200   7.0819   7.5888

          k = 0.1250 0.3750 0.0000 (   847 PWs)   bands (ev):

    -4.9581  -4.4141  -3.5376  -2.3654  -0.9369  -0.4579   0.0448   0.8281
     0.9201   2.0514   2.7909   3.4915   3.9703   5.1925   6.6735

          k = 0.3750 0.3750 0.0000 (   860 PWs)   bands (ev):

    -2.6921  -2.1607  -1.2996  -0.1500   1.1225   1.2457   1.6146   2.4180
     2.5145   2.7341   3.3709   3.5052   4.0124   4.8534   5.0111

     the Fermi energy is     3.4367 ev

!    total energy              =     -29.22292122 Ry
     Harris-Foulkes estimate   =     -29.22292124 Ry
     estimated scf accuracy    <       0.00000002 Ry

     convergence has been achieved in   8 iterations

     Forces acting on atoms (Ry/au):

     atom    1 type  1   force =     0.00000000    0.00000000    0.00450387
     atom    2 type  1   force =     0.00000000    0.00000000   -0.00411872
     atom    3 type  1   force =     0.00000000    0.00000000    0.00256564
     atom    4 type  1   force =     0.00000000    0.00000000    0.00000000
     atom    5 type  1   force =     0.00000000    0.00000000   -0.00256564
     atom    6 type  1   force =     0.00000000    0.00000000    0.00411872
     atom    7 type  1   force =     0.00000000    0.00000000   -0.00450387

     Total force =     0.009363     Total SCF correction =     0.000256

     Entering Dynamics:    iteration =     8

     <vel(dt)|acc(dt)> =  -0.99028922

ATOMIC_POSITIONS (alat)
Al       0.500000000   0.500000000  -2.065547071
Al       0.000000000   0.000000000  -1.382137154
Al       0.500000000   0.500000000  -0.691860731
Al       0.000000000   0.000000000   0.000000000
Al       0.500000000   0.500000000   0.691860731
Al       0.000000000   0.000000000   1.382137154
Al       0.500000000   0.500000000   2.065547071



     Writing output data file pwscf.save

     second order wave-functions extrapolation
     Check: negative starting charge=   -0.000294
     second order charge density extrapolation
     Check: negative starting charge=   -0.000295

     negative rho (up, down):  0.149E-05 0.000E+00

     total cpu time spent up to now is        9.0 secs

     per-process dynamical memory:     5.4 Mb

     Self-consistent Calculation

     iteration #  1     ecut=    12.00 Ry     beta=0.30
     Davidson diagonalization with overlap
     ethr =  1.00E-06,  avg # of iterations =  5.0

     negative rho (up, down):  0.216E-06 0.000E+00

     total cpu time spent up to now is        9.1 secs

     total energy              =     -29.22324543 Ry
     Harris-Foulkes estimate   =     -29.22326592 Ry
     estimated scf accuracy    <       0.00004351 Ry

     iteration #  2     ecut=    12.00 Ry     beta=0.30
     Davidson diagonalization with overlap
     ethr =  2.07E-07,  avg # of iterations =  3.3

     negative rho (up, down):  0.168E-06 0.000E+00

     total cpu time spent up to now is        9.3 secs

     total energy              =     -29.22322265 Ry
     Harris-Foulkes estimate   =     -29.22329139 Ry
     estimated scf accuracy    <       0.00069852 Ry

     iteration #  3     ecut=    12.00 Ry     beta=0.30
     Davidson diagonalization with overlap
     ethr =  2.07E-07,  avg # of iterations =  2.7

     negative rho (up, down):  0.545E-07 0.000E+00

     total cpu time spent up to now is        9.4 secs

     total energy              =     -29.22325869 Ry
     Harris-Foulkes estimate   =     -29.22326391 Ry
     estimated scf accuracy    <       0.00004697 Ry

     iteration #  4     ecut=    12.00 Ry     beta=0.30
     Davidson diagonalization with overlap
     ethr =  2.07E-07,  avg # of iterations =  1.3

     negative rho (up, down):  0.162E-07 0.000E+00

     total cpu time spent up to now is        9.5 secs

     total energy              =     -29.22326133 Ry
     Harris-Foulkes estimate   =     -29.22326137 Ry
     estimated scf accuracy    <       0.00000051 Ry

     iteration #  5     ecut=    12.00 Ry     beta=0.30
     Davidson diagonalization with overlap
     ethr =  2.44E-09,  avg # of iterations =  3.0

     total cpu time spent up to now is        9.6 secs

     End of self-consistent calculation

          k = 0.1250 0.1250 0.0000 (   822 PWs)   bands (ev):

    -7.3154  -6.7760  -5.8999  -4.6752  -3.1776  -1.4100   0.6194   1.9018
     4.5690   5.2756   5.7554   6.3637   6.5467   7.0627   7.5956

          k = 0.1250 0.3750 0.0000 (   847 PWs)   bands (ev):

    -4.9914  -4.4606  -3.6010  -2.3995  -0.9362  -0.4916  -0.0025   0.8397
     0.8559   2.0149   2.8125   3.4933   3.9911   5.2070   6.7046

          k = 0.3750 0.3750 0.0000 (   860 PWs)   bands (ev):

    -2.7256  -2.2076  -1.3643  -0.1855   1.0883   1.2440   1.5658   2.3474
     2.4800   2.7126   3.3571   3.4638   3.9554   4.8554   5.0324

     the Fermi energy is     3.4278 ev

!    total energy              =     -29.22326145 Ry
     Harris-Foulkes estimate   =     -29.22326144 Ry
     estimated scf accuracy    <       0.00000009 Ry

     convergence has been achieved in   5 iterations

     Forces acting on atoms (Ry/au):

     atom    1 type  1   force =     0.00000000    0.00000000    0.00032175
     atom    2 type  1   force =     0.00000000    0.00000000   -0.00015379
     atom    3 type  1   force =     0.00000000    0.00000000    0.00139098
     atom    4 type  1   force =     0.00000000    0.00000000    0.00000000
     atom    5 type  1   force =     0.00000000    0.00000000   -0.00139098
     atom    6 type  1   force =     0.00000000    0.00000000    0.00015379
     atom    7 type  1   force =     0.00000000    0.00000000   -0.00032175

     Total force =     0.002031     Total SCF correction =     0.000355
     SCF correction compared to forces is large: reduce conv_thr to get better values

     Entering Dynamics:    iteration =     9

     <vel(dt)|acc(dt)> =   0.94199936

ATOMIC_POSITIONS (alat)
Al       0.500000000   0.500000000  -2.053269541
Al       0.000000000   0.000000000  -1.377638613
Al       0.500000000   0.500000000  -0.688666012
Al       0.000000000   0.000000000   0.000000000
Al       0.500000000   0.500000000   0.688666012
Al       0.000000000   0.000000000   1.377638613
Al       0.500000000   0.500000000   2.053269541



     Writing output data file pwscf.save

     second order wave-functions extrapolation
     Check: negative starting charge=   -0.000295
     second order charge density extrapolation
     Check: negative starting charge=   -0.000290

     negative rho (up, down):  0.239E-04 0.000E+00

     total cpu time spent up to now is        9.8 secs

     per-process dynamical memory:     5.4 Mb

     Self-consistent Calculation

     iteration #  1     ecut=    12.00 Ry     beta=0.30
     Davidson diagonalization with overlap
     ethr =  1.00E-06,  avg # of iterations =  6.0

     negative rho (up, down):  0.109E-04 0.000E+00

     total cpu time spent up to now is       10.0 secs

     total energy              =     -29.22296598 Ry
     Harris-Foulkes estimate   =     -29.22320823 Ry
     estimated scf accuracy    <       0.00050391 Ry

     iteration #  2     ecut=    12.00 Ry     beta=0.30
     Davidson diagonalization with overlap
     ethr =  2.40E-06,  avg # of iterations =  3.7

     negative rho (up, down):  0.983E-05 0.000E+00

     total cpu time spent up to now is       10.1 secs

     total energy              =     -29.22256490 Ry
     Harris-Foulkes estimate   =     -29.22372527 Ry
     estimated scf accuracy    <       0.01365488 Ry

     iteration #  3     ecut=    12.00 Ry     beta=0.30
     Davidson diagonalization with overlap
     ethr =  2.40E-06,  avg # of iterations =  3.3

     negative rho (up, down):  0.578E-05 0.000E+00

     total cpu time spent up to now is       10.2 secs

     total energy              =     -29.22315342 Ry
     Harris-Foulkes estimate   =     -29.22316735 Ry
     estimated scf accuracy    <       0.00008025 Ry

     iteration #  4     ecut=    12.00 Ry     beta=0.30
     Davidson diagonalization with overlap
     ethr =  3.82E-07,  avg # of iterations =  1.7

     negative rho (up, down):  0.243E-05 0.000E+00

     total cpu time spent up to now is       10.3 secs

     total energy              =     -29.22316105 Ry
     Harris-Foulkes estimate   =     -29.22316195 Ry
     estimated scf accuracy    <       0.00000501 Ry

     iteration #  5     ecut=    12.00 Ry     beta=0.30
     Davidson diagonalization with overlap
     ethr =  2.39E-08,  avg # of iterations =  2.3

     negative rho (up, down):  0.133E-06 0.000E+00

     total cpu time spent up to now is       10.5 secs

     total energy              =     -29.22316201 Ry
     Harris-Foulkes estimate   =     -29.22316177 Ry
     estimated scf accuracy    <       0.00000049 Ry

     iteration #  6     ecut=    12.00 Ry     beta=0.30
     Davidson diagonalization with overlap
     ethr =  2.32E-09,  avg # of iterations =  2.0

     total cpu time spent up to now is       10.6 secs

     total energy              =     -29.22316211 Ry
     Harris-Foulkes estimate   =     -29.22316209 Ry
     estimated scf accuracy    <       0.00000014 Ry

     iteration #  7     ecut=    12.00 Ry     beta=0.30
     Davidson diagonalization with overlap
     ethr =  6.75E-10,  avg # of iterations =  2.3

     total cpu time spent up to now is       10.7 secs

     total energy              =     -29.22316214 Ry
     Harris-Foulkes estimate   =     -29.22316216 Ry
     estimated scf accuracy    <       0.00000017 Ry

     iteration #  8     ecut=    12.00 Ry     beta=0.30
     Davidson diagonalization with overlap
     ethr =  6.75E-10,  avg # of iterations =  1.3

     total cpu time spent up to now is       10.8 secs

     End of self-consistent calculation

          k = 0.1250 0.1250 0.0000 (   822 PWs)   bands (ev):

    -7.3635  -6.8259  -5.9514  -4.7034  -3.1804  -1.3993   0.6434   1.9287
     4.6083   5.2248   5.7009   6.3867   6.4871   7.0300   7.5717

          k = 0.1250 0.3750 0.0000 (   847 PWs)   bands (ev):

    -5.0395  -4.5107  -3.6529  -2.4289  -0.9422  -0.5396  -0.0536   0.8034
     0.8494   1.9836   2.8334   3.4900   4.0135   5.2176   6.7406

          k = 0.3750 0.3750 0.0000 (   860 PWs)   bands (ev):

    -2.7740  -2.2582  -1.4174  -0.2164   1.0387   1.2357   1.5128   2.2895
     2.4308   2.6841   3.3447   3.4283   3.9082   4.8486   5.0542

     the Fermi energy is     3.4183 ev

!    total energy              =     -29.22316215 Ry
     Harris-Foulkes estimate   =     -29.22316215 Ry
     estimated scf accuracy    <          2.9E-09 Ry

     convergence has been achieved in   8 iterations

     Forces acting on atoms (Ry/au):

     atom    1 type  1   force =     0.00000000    0.00000000   -0.00296896
     atom    2 type  1   force =     0.00000000    0.00000000    0.00173742
     atom    3 type  1   force =     0.00000000    0.00000000    0.00062020
     atom    4 type  1   force =     0.00000000    0.00000000    0.00000000
     atom    5 type  1   force =     0.00000000    0.00000000   -0.00062020
     atom    6 type  1   force =     0.00000000    0.00000000   -0.00173742
     atom    7 type  1   force =     0.00000000    0.00000000    0.00296896

     Total force =     0.004943     Total SCF correction =     0.000068

     Entering Dynamics:    iteration =    10

     <vel(dt)|acc(dt)> =  -0.98902163

ATOMIC_POSITIONS (alat)
Al       0.500000000   0.500000000  -2.063399000
Al       0.000000000   0.000000000  -1.380399575
Al       0.500000000   0.500000000  -0.689902066
Al       0.000000000   0.000000000   0.000000000
Al       0.500000000   0.500000000   0.689902066
Al       0.000000000   0.000000000   1.380399575
Al       0.500000000   0.500000000   2.063399000



     Writing output data file pwscf.save

     second order wave-functions extrapolation
     Check: negative starting charge=   -0.000290
     second order charge density extrapolation
     Check: negative starting charge=   -0.000294

     negative rho (up, down):  0.761E-06 0.000E+00

     total cpu time spent up to now is       10.9 secs

     per-process dynamical memory:     5.4 Mb

     Self-consistent Calculation

     iteration #  1     ecut=    12.00 Ry     beta=0.30
     Davidson diagonalization with overlap
     ethr =  1.00E-06,  avg # of iterations =  3.7

     negative rho (up, down):  0.702E-07 0.000E+00

     total cpu time spent up to now is       11.1 secs

     total energy              =     -29.22327477 Ry
     Harris-Foulkes estimate   =     -29.22328709 Ry
     estimated scf accuracy    <       0.00002605 Ry

     iteration #  2     ecut=    12.00 Ry     beta=0.30
     Davidson diagonalization with overlap
     ethr =  1.24E-07,  avg # of iterations =  3.0

     negative rho (up, down):  0.554E-07 0.000E+00

     total cpu time spent up to now is       11.2 secs

     total energy              =     -29.22326099 Ry
     Harris-Foulkes estimate   =     -29.22330302 Ry
     estimated scf accuracy    <       0.00042994 Ry

     iteration #  3     ecut=    12.00 Ry     beta=0.30
     Davidson diagonalization with overlap
     ethr =  1.24E-07,  avg # of iterations =  2.7

     negative rho (up, down):  0.255E-07 0.000E+00

     total cpu time spent up to now is       11.3 secs

     total energy              =     -29.22328284 Ry
     Harris-Foulkes estimate   =     -29.22328587 Ry
     estimated scf accuracy    <       0.00002605 Ry

     iteration #  4     ecut=    12.00 Ry     beta=0.30
     Davidson diagonalization with overlap
     ethr =  1.24E-07,  avg # of iterations =  1.3

     total cpu time spent up to now is       11.5 secs

     total energy              =     -29.22328440 Ry
     Harris-Foulkes estimate   =     -29.22328440 Ry
     estimated scf accuracy    <       0.00000022 Ry

     iteration #  5     ecut=    12.00 Ry     beta=0.30
     Davidson diagonalization with overlap
     ethr =  1.05E-09,  avg # of iterations =  3.0

     total cpu time spent up to now is       11.6 secs

     End of self-consistent calculation

          k = 0.1250 0.1250 0.0000 (   822 PWs)   bands (ev):

    -7.3290  -6.7805  -5.9087  -4.6801  -3.1775  -1.4098   0.6228   1.9059
     4.5775   5.2613   5.7508   6.3690   6.5367   7.0515   7.5924

          k = 0.1250 0.3750 0.0000 (   847 PWs)   bands (ev):

    -5.0050  -4.4651  -3.6098  -2.4046  -0.9371  -0.5048  -0.0071   0.8398
     0.8469   2.0096   2.8157   3.4932   3.9942   5.2066   6.7125

          k = 0.3750 0.3750 0.0000 (   860 PWs)   bands (ev):

    -2.7393  -2.2121  -1.3733  -0.1909   1.0743   1.2429   1.5612   2.3376
     2.4665   2.7091   3.3558   3.4577   3.9473   4.8554   5.0359

     the Fermi energy is     3.4265 ev

!    total energy              =     -29.22328447 Ry
     Harris-Foulkes estimate   =     -29.22328446 Ry
     estimated scf accuracy    <       0.00000005 Ry

     convergence has been achieved in   5 iterations

     Forces acting on atoms (Ry/au):

     atom    1 type  1   force =     0.00000000    0.00000000    0.00007292
     atom    2 type  1   force =     0.00000000    0.00000000   -0.00006713
     atom    3 type  1   force =     0.00000000    0.00000000    0.00057546
     atom    4 type  1   force =     0.00000000    0.00000000    0.00000000
     atom    5 type  1   force =     0.00000000    0.00000000   -0.00057546
     atom    6 type  1   force =     0.00000000    0.00000000    0.00006713
     atom    7 type  1   force =     0.00000000    0.00000000   -0.00007292

     Total force =     0.000826     Total SCF correction =     0.000279
     SCF correction compared to forces is large: reduce conv_thr to get better values

     Entering Dynamics:    iteration =    11

     <vel(dt)|acc(dt)> =  -0.97757462

ATOMIC_POSITIONS (alat)
Al       0.500000000   0.500000000  -2.062907181
Al       0.000000000   0.000000000  -1.380266825
Al       0.500000000   0.500000000  -0.689727944
Al       0.000000000   0.000000000   0.000000000
Al       0.500000000   0.500000000   0.689727944
Al       0.000000000   0.000000000   1.380266825
Al       0.500000000   0.500000000   2.062907181



     Writing output data file pwscf.save

     second order wave-functions extrapolation
     Check: negative starting charge=   -0.000294
     second order charge density extrapolation
     Check: negative starting charge=   -0.000294

     total cpu time spent up to now is       11.7 secs

     per-process dynamical memory:     5.4 Mb

     Self-consistent Calculation

     iteration #  1     ecut=    12.00 Ry     beta=0.30
     Davidson diagonalization with overlap
     ethr =  1.00E-06,  avg # of iterations =  2.0

     Threshold (ethr) on eigenvalues was too large:
     Diagonalizing with lowered threshold

     Davidson diagonalization with overlap
     ethr =  3.77E-08,  avg # of iterations =  1.0

     total cpu time spent up to now is       11.9 secs

     total energy              =     -29.22328177 Ry
     Harris-Foulkes estimate   =     -29.22328582 Ry
     estimated scf accuracy    <       0.00000809 Ry

     iteration #  2     ecut=    12.00 Ry     beta=0.30
     Davidson diagonalization with overlap
     ethr =  3.85E-08,  avg # of iterations =  3.0

     total cpu time spent up to now is       12.0 secs

     total energy              =     -29.22327325 Ry
     Harris-Foulkes estimate   =     -29.22329805 Ry
     estimated scf accuracy    <       0.00030834 Ry

     iteration #  3     ecut=    12.00 Ry     beta=0.30
     Davidson diagonalization with overlap
     ethr =  3.85E-08,  avg # of iterations =  2.7

     total cpu time spent up to now is       12.1 secs

     End of self-consistent calculation

          k = 0.1250 0.1250 0.0000 (   822 PWs)   bands (ev):

    -7.3310  -6.7822  -5.9110  -4.6813  -3.1774  -1.4093   0.6238   1.9070
     4.5790   5.2591   5.7489   6.3701   6.5340   7.0501   7.5916

          k = 0.1250 0.3750 0.0000 (   847 PWs)   bands (ev):

    -5.0070  -4.4669  -3.6122  -2.4059  -0.9372  -0.5068  -0.0089   0.8402
     0.8446   2.0083   2.8167   3.4931   3.9951   5.2071   6.7139

          k = 0.3750 0.3750 0.0000 (   860 PWs)   bands (ev):

    -2.7413  -2.2139  -1.3757  -0.1923   1.0722   1.2426   1.5593   2.3350
     2.4645   2.7082   3.3553   3.4562   3.9452   4.8554   5.0368

     the Fermi energy is     3.4262 ev

!    total energy              =     -29.22328545 Ry
     Harris-Foulkes estimate   =     -29.22328546 Ry
     estimated scf accuracy    <          9.6E-09 Ry

     convergence has been achieved in   3 iterations

     Forces acting on atoms (Ry/au):

     atom    1 type  1   force =     0.00000000    0.00000000   -0.00006782
     atom    2 type  1   force =     0.00000000    0.00000000    0.00006645
     atom    3 type  1   force =     0.00000000    0.00000000    0.00050192
     atom    4 type  1   force =     0.00000000    0.00000000    0.00000000
     atom    5 type  1   force =     0.00000000    0.00000000   -0.00050192
     atom    6 type  1   force =     0.00000000    0.00000000   -0.00006645
     atom    7 type  1   force =     0.00000000    0.00000000    0.00006782

     Total force =     0.000722     Total SCF correction =     0.000180
     SCF correction compared to forces is large: reduce conv_thr to get better values

     Damped Dynamics: convergence achieved in  12 steps

     End of damped dynamics calculation

     Final energy =     -29.2232854522 Ry

Begin final coordinates
     new unit-cell volume =   1193.24211 a.u.^3 (   176.82024 Ang^3 )

CELL_PARAMETERS (alat=  5.30330000)
   1.000000000   0.000000000   0.000000000
   0.000000000   1.000000000   0.000000000
   0.000000000   0.000000000   8.000000000

ATOMIC_POSITIONS (alat)
Al       0.500000000   0.500000000  -2.062907181
Al       0.000000000   0.000000000  -1.380266825
Al       0.500000000   0.500000000  -0.689727944
Al       0.000000000   0.000000000   0.000000000
Al       0.500000000   0.500000000   0.689727944
Al       0.000000000   0.000000000   1.380266825
Al       0.500000000   0.500000000   2.062907181
End final coordinates



     Entering Dynamics:    iteration =    12

     <vel(dt)|acc(dt)> =   0.95970591

ATOMIC_POSITIONS (alat)
Al       0.500000000   0.500000000  -2.061912500
Al       0.000000000   0.000000000  -1.379674705
Al       0.500000000   0.500000000  -0.689150680
Al       0.000000000   0.000000000   0.000000000
Al       0.500000000   0.500000000   0.689150680
Al       0.000000000   0.000000000   1.379674705
Al       0.500000000   0.500000000   2.061912500



     Writing output data file pwscf.save

     init_run     :      0.08s CPU      0.08s WALL (       1 calls)
     electrons    :      9.02s CPU     10.41s WALL (      12 calls)
     update_pot   :      0.31s CPU      0.79s WALL (      11 calls)
     forces       :      0.27s CPU      0.26s WALL (      12 calls)

     Called by init_run:
     wfcinit      :      0.06s CPU      0.06s WALL (       1 calls)
     potinit      :      0.00s CPU      0.01s WALL (       1 calls)

     Called by electrons:
     c_bands      :      7.48s CPU      7.68s WALL (      81 calls)
     sum_band     :      1.01s CPU      1.03s WALL (      81 calls)
     v_of_rho     :      0.18s CPU      0.20s WALL (      91 calls)
     mix_rho      :      0.08s CPU      0.09s WALL (      81 calls)

     Called by c_bands:
     init_us_2    :      0.22s CPU      0.18s WALL (     525 calls)
     cegterg      :      7.28s CPU      7.46s WALL (     243 calls)

     Called by *egterg:
     h_psi        :      4.71s CPU      4.87s WALL (     972 calls)
     g_psi        :      0.16s CPU      0.13s WALL (     726 calls)
     cdiaghg      :      0.56s CPU      0.59s WALL (     930 calls)

     Called by h_psi:
     add_vuspsi   :      0.50s CPU      0.47s WALL (     972 calls)

     General routines
     calbec       :      0.60s CPU      0.56s WALL (    1038 calls)
     fft          :      0.11s CPU      0.12s WALL (     391 calls)
     fftw         :      3.79s CPU      4.00s WALL (   22443 calls)
     davcio       :      0.03s CPU      0.04s WALL (     951 calls)

     Parallel routines

     PWSCF        :    10.09s CPU        12.19s WALL


   This run was terminated on:  10: 4:53  18Jul2014            

=------------------------------------------------------------------------------=
   JOB DONE.
=------------------------------------------------------------------------------=
