
     Program PWSCF v.4.3.2      starts on 18Jul2014 at 10:33: 9 

     This program is part of the open-source Quantum ESPRESSO suite
     for quantum simulation of materials; please cite
         "P. Giannozzi et al., J. Phys.:Condens. Matter 21 395502 (2009);
          URL http://www.quantum-espresso.org", 
     in publications or presentations arising from this work. More details at
     http://www.quantum-espresso.org/wiki/index.php/Citing_Quantum-ESPRESSO

     Parallel version (MPI), running on     1 processors

     Current dimensions of program PWSCF are:
     Max number of different atomic species (ntypx) = 10
     Max number of k-points (npk) =  40000
     Max angular momentum in pseudopotentials (lmaxx) =  3
     Waiting for input...
     Reading xml input from stdin

     Subspace diagonalization in iterative solution of the eigenvalue problem:
     a serial algorithm will be used


     G-vector sticks info
     --------------------
     sticks:   dense  smooth     PW     G-vecs:    dense   smooth      PW
     Sum         109     109     37                 6689     6689    1411



     bravais-lattice index     =            6
     lattice parameter (alat)  =       5.3033  a.u.
     unit-cell volume          =    1193.2421 (a.u.)^3
     number of atoms/cell      =            7
     number of atomic types    =            1
     number of electrons       =        21.00
     number of Kohn-Sham states=           15
     kinetic-energy cutoff     =      12.0000  Ry
     charge density cutoff     =      48.0000  Ry
     convergence threshold     =      1.0E-06
     mixing beta               =       0.3000
     number of iterations used =            8  plain     mixing
     Exchange-correlation      =  SLA  PZ   NOGX NOGC ( 1 1 0 0 0)
     EXX-fraction              =        0.00
     nstep                     =           50


     celldm(1)=   5.303300  celldm(2)=   0.000000  celldm(3)=   8.000000
     celldm(4)=   0.000000  celldm(5)=   0.000000  celldm(6)=   0.000000

     crystal axes: (cart. coord. in units of alat)
               a(1) = (   1.000000   0.000000   0.000000 )  
               a(2) = (   0.000000   1.000000   0.000000 )  
               a(3) = (   0.000000   0.000000   8.000000 )  

     reciprocal axes: (cart. coord. in units 2 pi/alat)
               b(1) = (  1.000000  0.000000  0.000000 )  
               b(2) = (  0.000000  1.000000  0.000000 )  
               b(3) = (  0.000000  0.000000  0.125000 )  


     PseudoPot. # 1 for Al read from file:
     /usr/share/espresso/pseudo/Al.pz-vbc.UPF
     MD5 check sum: 614279c88ff8d45c90147292d03ed420
     Pseudo is Norm-conserving, Zval =  3.0
     Generated by new atomic code, or converted to UPF format
     Using radial grid of  171 points,  2 beta functions with: 
                l(1) =   0
                l(2) =   1

     atomic species   valence    mass     pseudopotential
        Al             3.00     1.00000     Al( 1.00)

     16 Sym.Ops. (with inversion)


   Cartesian axes

     site n.     atom                  positions (alat units)
         1           Al  tau(   1) = (   0.5000000   0.5000000  -2.1213200  )
         2           Al  tau(   2) = (   0.0000000   0.0000000  -1.4142130  )
         3           Al  tau(   3) = (   0.5000000   0.5000000  -0.7071070  )
         4           Al  tau(   4) = (   0.0000000   0.0000000   0.0000000  )
         5           Al  tau(   5) = (   0.5000000   0.5000000   0.7071070  )
         6           Al  tau(   6) = (   0.0000000   0.0000000   1.4142130  )
         7           Al  tau(   7) = (   0.5000000   0.5000000   2.1213200  )

     number of k points=     3  Methfessel-Paxton smearing, width (Ry)=  0.0500
                       cart. coord. in units 2pi/alat
        k(    1) = (   0.1250000   0.1250000   0.0000000), wk =   0.5000000
        k(    2) = (   0.1250000   0.3750000   0.0000000), wk =   1.0000000
        k(    3) = (   0.3750000   0.3750000   0.0000000), wk =   0.5000000

     Dense  grid:     6689 G-vectors     FFT dimensions: (  12,  12,  96)

     Largest allocated arrays     est. size (Mb)     dimensions
        Kohn-Sham Wavefunctions         0.20 Mb     (    860,   15)
        NL pseudopotentials             0.37 Mb     (    860,   28)
        Each V/rho on FFT grid          0.21 Mb     (  13824)
        Each G-vector array             0.05 Mb     (   6689)
        G-vector shells                 0.00 Mb     (    351)
     Largest temporary arrays     est. size (Mb)     dimensions
        Auxiliary wavefunctions         0.79 Mb     (    860,   60)
        Each subspace H/S matrix        0.05 Mb     (  60,  60)
        Each <psi_i|beta_j> matrix      0.01 Mb     (     28,   15)
        Arrays for rho mixing           1.69 Mb     (  13824,   8)

     Initial potential from superposition of free atoms
     Check: negative starting charge=   -0.000275

     starting charge   20.98560, renormalised to   21.00000

     negative rho (up, down):  0.276E-03 0.000E+00
     Starting wfc are   28 atomic wfcs

     total cpu time spent up to now is        0.1 secs

     per-process dynamical memory:     4.9 Mb

     Self-consistent Calculation

     iteration #  1     ecut=    12.00 Ry     beta=0.30
     Davidson diagonalization with overlap
     ethr =  1.00E-02,  avg # of iterations =  3.0

     negative rho (up, down):  0.188E-03 0.000E+00

     total cpu time spent up to now is        0.3 secs

     total energy              =     -28.85171199 Ry
     Harris-Foulkes estimate   =     -29.29355902 Ry
     estimated scf accuracy    <       0.93001954 Ry

     iteration #  2     ecut=    12.00 Ry     beta=0.30
     Davidson diagonalization with overlap
     ethr =  4.43E-03,  avg # of iterations =  4.0

     total cpu time spent up to now is        0.4 secs

     total energy              =     -27.67772546 Ry
     Harris-Foulkes estimate   =     -30.53657807 Ry
     estimated scf accuracy    <      39.17988488 Ry

     iteration #  3     ecut=    12.00 Ry     beta=0.30
     Davidson diagonalization with overlap
     ethr =  4.43E-03,  avg # of iterations =  4.7

     total cpu time spent up to now is        0.6 secs

     total energy              =     -29.21379724 Ry
     Harris-Foulkes estimate   =     -29.23663863 Ry
     estimated scf accuracy    <       0.23810993 Ry

     iteration #  4     ecut=    12.00 Ry     beta=0.30
     Davidson diagonalization with overlap
     ethr =  1.13E-03,  avg # of iterations =  1.7

     total cpu time spent up to now is        0.7 secs

     total energy              =     -29.21565695 Ry
     Harris-Foulkes estimate   =     -29.22401501 Ry
     estimated scf accuracy    <       0.04590275 Ry

     iteration #  5     ecut=    12.00 Ry     beta=0.30
     Davidson diagonalization with overlap
     ethr =  2.19E-04,  avg # of iterations =  2.7

     total cpu time spent up to now is        0.9 secs

     total energy              =     -29.21945118 Ry
     Harris-Foulkes estimate   =     -29.22031658 Ry
     estimated scf accuracy    <       0.00640191 Ry

     iteration #  6     ecut=    12.00 Ry     beta=0.30
     Davidson diagonalization with overlap
     ethr =  3.05E-05,  avg # of iterations =  2.7

     total cpu time spent up to now is        1.0 secs

     total energy              =     -29.21991704 Ry
     Harris-Foulkes estimate   =     -29.21994758 Ry
     estimated scf accuracy    <       0.00081227 Ry

     iteration #  7     ecut=    12.00 Ry     beta=0.30
     Davidson diagonalization with overlap
     ethr =  3.87E-06,  avg # of iterations =  3.0

     total cpu time spent up to now is        1.1 secs

     total energy              =     -29.21995471 Ry
     Harris-Foulkes estimate   =     -29.21996878 Ry
     estimated scf accuracy    <       0.00009405 Ry

     iteration #  8     ecut=    12.00 Ry     beta=0.30
     Davidson diagonalization with overlap
     ethr =  4.48E-07,  avg # of iterations =  2.3

     total cpu time spent up to now is        1.2 secs

     total energy              =     -29.21995741 Ry
     Harris-Foulkes estimate   =     -29.21996114 Ry
     estimated scf accuracy    <       0.00002438 Ry

     iteration #  9     ecut=    12.00 Ry     beta=0.30
     Davidson diagonalization with overlap
     ethr =  1.16E-07,  avg # of iterations =  2.7

     total cpu time spent up to now is        1.3 secs

     total energy              =     -29.21995993 Ry
     Harris-Foulkes estimate   =     -29.21996101 Ry
     estimated scf accuracy    <       0.00000902 Ry

     iteration # 10     ecut=    12.00 Ry     beta=0.30
     Davidson diagonalization with overlap
     ethr =  4.29E-08,  avg # of iterations =  1.3

     total cpu time spent up to now is        1.4 secs

     End of self-consistent calculation

          k = 0.1250 0.1250 0.0000 (   822 PWs)   bands (ev):

    -7.0790  -6.5552  -5.7174  -4.5663  -3.1472  -1.4538   0.5130   1.7884
     4.3697   5.5244   5.9953   6.2181   6.7546   7.2251   7.4963

          k = 0.1250 0.3750 0.0000 (   847 PWs)   bands (ev):

    -4.7555  -4.2392  -3.4161  -2.2857  -0.8947  -0.2551   0.2238   0.8005
     1.0422   2.1352   2.7201   3.5256   3.8934   5.1677   6.5172

          k = 0.3750 0.3750 0.0000 (   860 PWs)   bands (ev):

    -2.4879  -1.9832  -1.1752  -0.0657   1.2961   1.3316   1.7993   2.5504
     2.7201   2.8085   3.4481   3.5987   4.1260   4.9120   4.9356

     the Fermi energy is     3.4731 ev

!    total energy              =     -29.21996046 Ry
     Harris-Foulkes estimate   =     -29.21996045 Ry
     estimated scf accuracy    <       0.00000006 Ry

     The total energy is the sum of the following terms:

     one-electron contribution =    -182.01418356 Ry
     hartree contribution      =      97.75001981 Ry
     xc contribution           =     -11.20681477 Ry
     ewald contribution        =      66.25386160 Ry
     smearing contrib. (-TS)   =      -0.00284353 Ry

     convergence has been achieved in  10 iterations

     Forces acting on atoms (Ry/au):

     atom    1 type  1   force =     0.00000000    0.00000000    0.01016733
     atom    2 type  1   force =     0.00000000    0.00000000   -0.00113205
     atom    3 type  1   force =     0.00000000    0.00000000    0.00256101
     atom    4 type  1   force =     0.00000000    0.00000000    0.00000000
     atom    5 type  1   force =     0.00000000    0.00000000   -0.00256101
     atom    6 type  1   force =     0.00000000    0.00000000    0.00113205
     atom    7 type  1   force =     0.00000000    0.00000000   -0.01016733

     Total force =     0.014914     Total SCF correction =     0.000133

     BFGS Geometry Optimization

     number of scf cycles    =   1
     number of bfgs steps    =   0

     energy   new            =     -29.2199604590 Ry

     new trust radius        =       0.0101673268 bohr
     new conv_thr            =       0.0000010000 Ry


ATOMIC_POSITIONS (alat)
Al       0.500000000   0.500000000  -2.119402830
Al       0.000000000   0.000000000  -1.414426461
Al       0.500000000   0.500000000  -0.706624091
Al       0.000000000   0.000000000   0.000000000
Al       0.500000000   0.500000000   0.706624091
Al       0.000000000   0.000000000   1.414426461
Al       0.500000000   0.500000000   2.119402830



     Writing output data file pwscf.save
     Check: negative starting charge=   -0.000275
     NEW-OLD atomic charge density approx. for the potential
     Check: negative starting charge=   -0.000280

     negative rho (up, down):  0.180E-05 0.000E+00

     total cpu time spent up to now is        1.5 secs

     per-process dynamical memory:     5.5 Mb

     Self-consistent Calculation

     iteration #  1     ecut=    12.00 Ry     beta=0.30
     Davidson diagonalization with overlap
     ethr =  1.00E-06,  avg # of iterations =  2.7

     Threshold (ethr) on eigenvalues was too large:
     Diagonalizing with lowered threshold

     Davidson diagonalization with overlap
     ethr =  7.87E-08,  avg # of iterations =  1.7

     negative rho (up, down):  0.294E-06 0.000E+00

     total cpu time spent up to now is        1.8 secs

     total energy              =     -29.22017011 Ry
     Harris-Foulkes estimate   =     -29.22017679 Ry
     estimated scf accuracy    <       0.00001595 Ry

     iteration #  2     ecut=    12.00 Ry     beta=0.30
     Davidson diagonalization with overlap
     ethr =  7.60E-08,  avg # of iterations =  3.0

     negative rho (up, down):  0.231E-06 0.000E+00

     total cpu time spent up to now is        1.9 secs

     total energy              =     -29.22016223 Ry
     Harris-Foulkes estimate   =     -29.22018280 Ry
     estimated scf accuracy    <       0.00022612 Ry

     iteration #  3     ecut=    12.00 Ry     beta=0.30
     Davidson diagonalization with overlap
     ethr =  7.60E-08,  avg # of iterations =  2.7

     negative rho (up, down):  0.189E-07 0.000E+00

     total cpu time spent up to now is        2.0 secs

     total energy              =     -29.22017336 Ry
     Harris-Foulkes estimate   =     -29.22017447 Ry
     estimated scf accuracy    <       0.00001158 Ry

     iteration #  4     ecut=    12.00 Ry     beta=0.30
     Davidson diagonalization with overlap
     ethr =  5.51E-08,  avg # of iterations =  1.7

     total cpu time spent up to now is        2.1 secs

     End of self-consistent calculation

          k = 0.1250 0.1250 0.0000 (   822 PWs)   bands (ev):

    -7.0832  -6.5613  -5.7280  -4.5713  -3.1447  -1.4506   0.5179   1.7934
     4.3762   5.5200   5.9886   6.2250   6.7423   7.2250   7.5044

          k = 0.1250 0.3750 0.0000 (   847 PWs)   bands (ev):

    -4.7597  -4.2453  -3.4267  -2.2908  -0.8925  -0.2594   0.2175   0.8035
     1.0314   2.1297   2.7248   3.5278   3.8975   5.1712   6.5234

          k = 0.3750 0.3750 0.0000 (   860 PWs)   bands (ev):

    -2.4921  -1.9894  -1.1859  -0.0711   1.2980   1.3273   1.7928   2.5386
     2.7158   2.8082   3.4451   3.5924   4.1166   4.9149   4.9401

     the Fermi energy is     3.4729 ev

!    total energy              =     -29.22017346 Ry
     Harris-Foulkes estimate   =     -29.22017405 Ry
     estimated scf accuracy    <       0.00000091 Ry

     The total energy is the sum of the following terms:

     one-electron contribution =    -182.38050653 Ry
     hartree contribution      =      97.93301644 Ry
     xc contribution           =     -11.20947958 Ry
     ewald contribution        =      66.43968923 Ry
     smearing contrib. (-TS)   =      -0.00289301 Ry

     convergence has been achieved in   4 iterations

     Forces acting on atoms (Ry/au):

     atom    1 type  1   force =     0.00000000    0.00000000    0.00951534
     atom    2 type  1   force =     0.00000000    0.00000000   -0.00037965
     atom    3 type  1   force =     0.00000000    0.00000000    0.00216759
     atom    4 type  1   force =     0.00000000    0.00000000    0.00000000
     atom    5 type  1   force =     0.00000000    0.00000000   -0.00216759
     atom    6 type  1   force =     0.00000000    0.00000000    0.00037965
     atom    7 type  1   force =     0.00000000    0.00000000   -0.00951534

     Total force =     0.013812     Total SCF correction =     0.001207

     number of scf cycles    =   2
     number of bfgs steps    =   1

     energy   old            =     -29.2199604590 Ry
     energy   new            =     -29.2201734552 Ry

     CASE: energy  _new < energy  _old


     WARNING: bfgs curvature condition failed, Theta= 0.866
     new trust radius        =       0.0152509903 bohr
     new conv_thr            =       0.0000000213 Ry


ATOMIC_POSITIONS (alat)
Al       0.500000000   0.500000000  -2.116527075
Al       0.000000000   0.000000000  -1.414549062
Al       0.500000000   0.500000000  -0.705966346
Al       0.000000000   0.000000000   0.000000000
Al       0.500000000   0.500000000   0.705966346
Al       0.000000000   0.000000000   1.414549062
Al       0.500000000   0.500000000   2.116527075



     Writing output data file pwscf.save
     Check: negative starting charge=   -0.000280
     NEW-OLD atomic charge density approx. for the potential
     Check: negative starting charge=   -0.000285

     negative rho (up, down):  0.602E-05 0.000E+00

     total cpu time spent up to now is        2.2 secs

     per-process dynamical memory:     5.5 Mb

     Self-consistent Calculation

     iteration #  1     ecut=    12.00 Ry     beta=0.30
     Davidson diagonalization with overlap
     ethr =  1.00E-06,  avg # of iterations =  3.0

     negative rho (up, down):  0.187E-05 0.000E+00

     total cpu time spent up to now is        2.4 secs

     total energy              =     -29.22045664 Ry
     Harris-Foulkes estimate   =     -29.22046762 Ry
     estimated scf accuracy    <       0.00002709 Ry

     iteration #  2     ecut=    12.00 Ry     beta=0.30
     Davidson diagonalization with overlap
     ethr =  1.29E-07,  avg # of iterations =  2.7

     negative rho (up, down):  0.114E-05 0.000E+00

     total cpu time spent up to now is        2.5 secs

     total energy              =     -29.22045546 Ry
     Harris-Foulkes estimate   =     -29.22046581 Ry
     estimated scf accuracy    <       0.00005057 Ry

     iteration #  3     ecut=    12.00 Ry     beta=0.30
     Davidson diagonalization with overlap
     ethr =  1.29E-07,  avg # of iterations =  2.0

     negative rho (up, down):  0.495E-06 0.000E+00

     total cpu time spent up to now is        2.6 secs

     total energy              =     -29.22045634 Ry
     Harris-Foulkes estimate   =     -29.22046832 Ry
     estimated scf accuracy    <       0.00014062 Ry

     iteration #  4     ecut=    12.00 Ry     beta=0.30
     Davidson diagonalization with overlap
     ethr =  1.29E-07,  avg # of iterations =  2.0

     negative rho (up, down):  0.407E-07 0.000E+00

     total cpu time spent up to now is        2.7 secs

     total energy              =     -29.22046265 Ry
     Harris-Foulkes estimate   =     -29.22046314 Ry
     estimated scf accuracy    <       0.00000392 Ry

     iteration #  5     ecut=    12.00 Ry     beta=0.30
     Davidson diagonalization with overlap
     ethr =  1.87E-08,  avg # of iterations =  1.3

     total cpu time spent up to now is        2.8 secs

     total energy              =     -29.22046301 Ry
     Harris-Foulkes estimate   =     -29.22046292 Ry
     estimated scf accuracy    <       0.00000023 Ry

     iteration #  6     ecut=    12.00 Ry     beta=0.30
     Davidson diagonalization with overlap
     ethr =  1.11E-09,  avg # of iterations =  2.7

     total cpu time spent up to now is        3.0 secs

     total energy              =     -29.22046304 Ry
     Harris-Foulkes estimate   =     -29.22046305 Ry
     estimated scf accuracy    <       0.00000008 Ry

     iteration #  7     ecut=    12.00 Ry     beta=0.30
     Davidson diagonalization with overlap
     ethr =  3.96E-10,  avg # of iterations =  2.3

     total cpu time spent up to now is        3.1 secs

     total energy              =     -29.22046305 Ry
     Harris-Foulkes estimate   =     -29.22046307 Ry
     estimated scf accuracy    <       0.00000009 Ry

     iteration #  8     ecut=    12.00 Ry     beta=0.30
     Davidson diagonalization with overlap
     ethr =  3.96E-10,  avg # of iterations =  1.7

     total cpu time spent up to now is        3.2 secs

     End of self-consistent calculation

          k = 0.1250 0.1250 0.0000 (   822 PWs)   bands (ev):

    -7.0917  -6.5716  -5.7448  -4.5801  -3.1440  -1.4483   0.5229   1.7986
     4.3838   5.5112   5.9775   6.2328   6.7230   7.2205   7.5053

          k = 0.1250 0.3750 0.0000 (   847 PWs)   bands (ev):

    -4.7682  -4.2556  -3.4436  -2.2998  -0.8922  -0.2679   0.2071   0.8054
     1.0143   2.1201   2.7294   3.5280   3.9014   5.1740   6.5307

          k = 0.3750 0.3750 0.0000 (   860 PWs)   bands (ev):

    -2.5007  -1.9998  -1.2031  -0.0804   1.2978   1.3187   1.7820   2.5199
     2.7071   2.8055   3.4394   3.5817   4.1014   4.9157   4.9443

     the Fermi energy is     3.4704 ev

!    total energy              =     -29.22046306 Ry
     Harris-Foulkes estimate   =     -29.22046306 Ry
     estimated scf accuracy    <          1.5E-09 Ry

     The total energy is the sum of the following terms:

     one-electron contribution =    -182.94368597 Ry
     hartree contribution      =      98.21000619 Ry
     xc contribution           =     -11.21340536 Ry
     ewald contribution        =      66.72958197 Ry
     smearing contrib. (-TS)   =      -0.00295990 Ry

     convergence has been achieved in   8 iterations

     Forces acting on atoms (Ry/au):

     atom    1 type  1   force =     0.00000000    0.00000000    0.00854539
     atom    2 type  1   force =     0.00000000    0.00000000    0.00060748
     atom    3 type  1   force =     0.00000000    0.00000000    0.00181126
     atom    4 type  1   force =     0.00000000    0.00000000    0.00000000
     atom    5 type  1   force =     0.00000000    0.00000000   -0.00181126
     atom    6 type  1   force =     0.00000000    0.00000000   -0.00060748
     atom    7 type  1   force =     0.00000000    0.00000000   -0.00854539

     Total force =     0.012383     Total SCF correction =     0.000055

     number of scf cycles    =   3
     number of bfgs steps    =   2

     energy   old            =     -29.2201734552 Ry
     energy   new            =     -29.2204630591 Ry

     CASE: energy  _new < energy  _old

     new trust radius        =       0.0228764854 bohr
     new conv_thr            =       0.0000000290 Ry


ATOMIC_POSITIONS (alat)
Al       0.500000000   0.500000000  -2.112213443
Al       0.000000000   0.000000000  -1.414002321
Al       0.500000000   0.500000000  -0.705078923
Al       0.000000000   0.000000000   0.000000000
Al       0.500000000   0.500000000   0.705078923
Al       0.000000000   0.000000000   1.414002321
Al       0.500000000   0.500000000   2.112213443



     Writing output data file pwscf.save
     Check: negative starting charge=   -0.000285
     NEW-OLD atomic charge density approx. for the potential
     Check: negative starting charge=   -0.000290

     negative rho (up, down):  0.149E-04 0.000E+00

     total cpu time spent up to now is        3.3 secs

     per-process dynamical memory:     5.5 Mb

     Self-consistent Calculation

     iteration #  1     ecut=    12.00 Ry     beta=0.30
     Davidson diagonalization with overlap
     ethr =  1.00E-06,  avg # of iterations =  3.7

     negative rho (up, down):  0.628E-05 0.000E+00

     total cpu time spent up to now is        3.5 secs

     total energy              =     -29.22083534 Ry
     Harris-Foulkes estimate   =     -29.22085588 Ry
     estimated scf accuracy    <       0.00005159 Ry

     iteration #  2     ecut=    12.00 Ry     beta=0.30
     Davidson diagonalization with overlap
     ethr =  2.46E-07,  avg # of iterations =  2.3

     negative rho (up, down):  0.482E-05 0.000E+00

     total cpu time spent up to now is        3.6 secs

     total energy              =     -29.22082975 Ry
     Harris-Foulkes estimate   =     -29.22085523 Ry
     estimated scf accuracy    <       0.00014368 Ry

     iteration #  3     ecut=    12.00 Ry     beta=0.30
     Davidson diagonalization with overlap
     ethr =  2.46E-07,  avg # of iterations =  2.0

     negative rho (up, down):  0.302E-05 0.000E+00

     total cpu time spent up to now is        3.7 secs

     total energy              =     -29.22083607 Ry
     Harris-Foulkes estimate   =     -29.22085714 Ry
     estimated scf accuracy    <       0.00024942 Ry

     iteration #  4     ecut=    12.00 Ry     beta=0.30
     Davidson diagonalization with overlap
     ethr =  2.46E-07,  avg # of iterations =  2.0

     negative rho (up, down):  0.384E-06 0.000E+00

     total cpu time spent up to now is        3.8 secs

     total energy              =     -29.22084692 Ry
     Harris-Foulkes estimate   =     -29.22084750 Ry
     estimated scf accuracy    <       0.00000468 Ry

     iteration #  5     ecut=    12.00 Ry     beta=0.30
     Davidson diagonalization with overlap
     ethr =  2.23E-08,  avg # of iterations =  1.7

     total cpu time spent up to now is        3.9 secs

     total energy              =     -29.22084745 Ry
     Harris-Foulkes estimate   =     -29.22084727 Ry
     estimated scf accuracy    <       0.00000047 Ry

     iteration #  6     ecut=    12.00 Ry     beta=0.30
     Davidson diagonalization with overlap
     ethr =  2.24E-09,  avg # of iterations =  2.0

     total cpu time spent up to now is        4.1 secs

     total energy              =     -29.22084752 Ry
     Harris-Foulkes estimate   =     -29.22084751 Ry
     estimated scf accuracy    <       0.00000008 Ry

     iteration #  7     ecut=    12.00 Ry     beta=0.30
     Davidson diagonalization with overlap
     ethr =  4.00E-10,  avg # of iterations =  2.3

     total cpu time spent up to now is        4.2 secs

     total energy              =     -29.22084753 Ry
     Harris-Foulkes estimate   =     -29.22084755 Ry
     estimated scf accuracy    <       0.00000008 Ry

     iteration #  8     ecut=    12.00 Ry     beta=0.30
     Davidson diagonalization with overlap
     ethr =  3.85E-10,  avg # of iterations =  1.7

     total cpu time spent up to now is        4.3 secs

     End of self-consistent calculation

          k = 0.1250 0.1250 0.0000 (   822 PWs)   bands (ev):

    -7.1049  -6.5877  -5.7658  -4.5910  -3.1432  -1.4438   0.5317   1.8076
     4.3972   5.4974   5.9597   6.2453   6.6987   7.2135   7.5101

          k = 0.1250 0.3750 0.0000 (   847 PWs)   bands (ev):

    -4.7814  -4.2718  -3.4647  -2.3111  -0.8920  -0.2812   0.1907   0.8095
     0.9928   2.1081   2.7373   3.5283   3.9088   5.1789   6.5434

          k = 0.3750 0.3750 0.0000 (   860 PWs)   bands (ev):

    -2.5139  -2.0161  -1.2246  -0.0922   1.2972   1.3051   1.7648   2.4964
     2.6937   2.8014   3.4312   3.5682   4.0824   4.9161   4.9520

     the Fermi energy is     3.4673 ev

!    total energy              =     -29.22084754 Ry
     Harris-Foulkes estimate   =     -29.22084754 Ry
     estimated scf accuracy    <          4.8E-09 Ry

     The total energy is the sum of the following terms:

     one-electron contribution =    -183.88555249 Ry
     hartree contribution      =      98.67729385 Ry
     xc contribution           =     -11.21940067 Ry
     ewald contribution        =      67.20983756 Ry
     smearing contrib. (-TS)   =      -0.00302579 Ry

     convergence has been achieved in   8 iterations

     Forces acting on atoms (Ry/au):

     atom    1 type  1   force =     0.00000000    0.00000000    0.00729058
     atom    2 type  1   force =     0.00000000    0.00000000    0.00171623
     atom    3 type  1   force =     0.00000000    0.00000000    0.00142657
     atom    4 type  1   force =     0.00000000    0.00000000    0.00000000
     atom    5 type  1   force =     0.00000000    0.00000000   -0.00142657
     atom    6 type  1   force =     0.00000000    0.00000000   -0.00171623
     atom    7 type  1   force =     0.00000000    0.00000000   -0.00729058

     Total force =     0.010783     Total SCF correction =     0.000102

     number of scf cycles    =   4
     number of bfgs steps    =   3

     energy   old            =     -29.2204630591 Ry
     energy   new            =     -29.2208475374 Ry

     CASE: energy  _new < energy  _old

     new trust radius        =       0.0343147281 bohr
     new conv_thr            =       0.0000000384 Ry


ATOMIC_POSITIONS (alat)
Al       0.500000000   0.500000000  -2.105742995
Al       0.000000000   0.000000000  -1.409716881
Al       0.500000000   0.500000000  -0.704156032
Al       0.000000000   0.000000000   0.000000000
Al       0.500000000   0.500000000   0.704156032
Al       0.000000000   0.000000000   1.409716881
Al       0.500000000   0.500000000   2.105742995



     Writing output data file pwscf.save
     Check: negative starting charge=   -0.000290
     NEW-OLD atomic charge density approx. for the potential
     Check: negative starting charge=   -0.000294

     negative rho (up, down):  0.333E-04 0.000E+00

     total cpu time spent up to now is        4.4 secs

     per-process dynamical memory:     5.5 Mb

     Self-consistent Calculation

     iteration #  1     ecut=    12.00 Ry     beta=0.30
     Davidson diagonalization with overlap
     ethr =  1.00E-06,  avg # of iterations =  3.7

     negative rho (up, down):  0.158E-04 0.000E+00

     total cpu time spent up to now is        4.6 secs

     total energy              =     -29.22128881 Ry
     Harris-Foulkes estimate   =     -29.22142471 Ry
     estimated scf accuracy    <       0.00029455 Ry

     iteration #  2     ecut=    12.00 Ry     beta=0.30
     Davidson diagonalization with overlap
     ethr =  1.40E-06,  avg # of iterations =  3.3

     negative rho (up, down):  0.143E-04 0.000E+00

     total cpu time spent up to now is        4.7 secs

     total energy              =     -29.22109046 Ry
     Harris-Foulkes estimate   =     -29.22166456 Ry
     estimated scf accuracy    <       0.00638697 Ry

     iteration #  3     ecut=    12.00 Ry     beta=0.30
     Davidson diagonalization with overlap
     ethr =  1.40E-06,  avg # of iterations =  3.0

     negative rho (up, down):  0.994E-05 0.000E+00

     total cpu time spent up to now is        4.9 secs

     total energy              =     -29.22138453 Ry
     Harris-Foulkes estimate   =     -29.22141985 Ry
     estimated scf accuracy    <       0.00029982 Ry

     iteration #  4     ecut=    12.00 Ry     beta=0.30
     Davidson diagonalization with overlap
     ethr =  1.40E-06,  avg # of iterations =  1.0

     negative rho (up, down):  0.135E-06 0.000E+00

     total cpu time spent up to now is        5.0 secs

     total energy              =     -29.22140156 Ry
     Harris-Foulkes estimate   =     -29.22140095 Ry
     estimated scf accuracy    <       0.00000510 Ry

     iteration #  5     ecut=    12.00 Ry     beta=0.30
     Davidson diagonalization with overlap
     ethr =  2.43E-08,  avg # of iterations =  3.0

     negative rho (up, down):  0.220E-07 0.000E+00

     total cpu time spent up to now is        5.1 secs

     total energy              =     -29.22140275 Ry
     Harris-Foulkes estimate   =     -29.22140300 Ry
     estimated scf accuracy    <       0.00000585 Ry

     iteration #  6     ecut=    12.00 Ry     beta=0.30
     Davidson diagonalization with overlap
     ethr =  2.43E-08,  avg # of iterations =  1.0

     total cpu time spent up to now is        5.2 secs

     total energy              =     -29.22140281 Ry
     Harris-Foulkes estimate   =     -29.22140287 Ry
     estimated scf accuracy    <       0.00000108 Ry

     iteration #  7     ecut=    12.00 Ry     beta=0.30
     Davidson diagonalization with overlap
     ethr =  5.16E-09,  avg # of iterations =  2.3

     total cpu time spent up to now is        5.3 secs

     total energy              =     -29.22140291 Ry
     Harris-Foulkes estimate   =     -29.22140298 Ry
     estimated scf accuracy    <       0.00000049 Ry

     iteration #  8     ecut=    12.00 Ry     beta=0.30
     Davidson diagonalization with overlap
     ethr =  2.35E-09,  avg # of iterations =  2.0

     total cpu time spent up to now is        5.4 secs

     total energy              =     -29.22140296 Ry
     Harris-Foulkes estimate   =     -29.22140296 Ry
     estimated scf accuracy    <       0.00000010 Ry

     iteration #  9     ecut=    12.00 Ry     beta=0.30
     Davidson diagonalization with overlap
     ethr =  4.96E-10,  avg # of iterations =  1.3

     total cpu time spent up to now is        5.5 secs

     End of self-consistent calculation

          k = 0.1250 0.1250 0.0000 (   822 PWs)   bands (ev):

    -7.1310  -6.6159  -5.7821  -4.6016  -3.1493  -1.4381   0.5443   1.8205
     4.4211   5.4700   5.9290   6.2638   6.6804   7.1965   7.5208

          k = 0.1250 0.3750 0.0000 (   847 PWs)   bands (ev):

    -4.8074  -4.3000  -3.4813  -2.3223  -0.8991  -0.3074   0.1618   0.8147
     0.9761   2.0961   2.7481   3.5221   3.9204   5.1841   6.5659

          k = 0.3750 0.3750 0.0000 (   860 PWs)   bands (ev):

    -2.5401  -2.0448  -1.2416  -0.1041   1.2783   1.2889   1.7349   2.4783
     2.6670   2.7915   3.4175   3.5550   4.0668   4.9058   4.9633

     the Fermi energy is     3.4613 ev

!    total energy              =     -29.22140294 Ry
     Harris-Foulkes estimate   =     -29.22140296 Ry
     estimated scf accuracy    <       0.00000002 Ry

     The total energy is the sum of the following terms:

     one-electron contribution =    -185.72968711 Ry
     hartree contribution      =      99.59364869 Ry
     xc contribution           =     -11.22843071 Ry
     ewald contribution        =      68.14600874 Ry
     smearing contrib. (-TS)   =      -0.00294254 Ry

     convergence has been achieved in   9 iterations

     Forces acting on atoms (Ry/au):

     atom    1 type  1   force =     0.00000000    0.00000000    0.00636513
     atom    2 type  1   force =     0.00000000    0.00000000    0.00137262
     atom    3 type  1   force =     0.00000000    0.00000000    0.00186498
     atom    4 type  1   force =     0.00000000    0.00000000    0.00000000
     atom    5 type  1   force =     0.00000000    0.00000000   -0.00186498
     atom    6 type  1   force =     0.00000000    0.00000000   -0.00137262
     atom    7 type  1   force =     0.00000000    0.00000000   -0.00636513

     Total force =     0.009579     Total SCF correction =     0.000274

     number of scf cycles    =   5
     number of bfgs steps    =   4

     energy   old            =     -29.2208475374 Ry
     energy   new            =     -29.2214029358 Ry

     CASE: energy  _new < energy  _old


     WARNING: bfgs curvature condition failed, Theta= 0.903
     new trust radius        =       0.0514720922 bohr
     new conv_thr            =       0.0000000555 Ry


ATOMIC_POSITIONS (alat)
Al       0.500000000   0.500000000  -2.096037323
Al       0.000000000   0.000000000  -1.403814656
Al       0.500000000   0.500000000  -0.702533304
Al       0.000000000   0.000000000   0.000000000
Al       0.500000000   0.500000000   0.702533304
Al       0.000000000   0.000000000   1.403814656
Al       0.500000000   0.500000000   2.096037323



     Writing output data file pwscf.save
     Check: negative starting charge=   -0.000294
     NEW-OLD atomic charge density approx. for the potential
     Check: negative starting charge=   -0.000291

     negative rho (up, down):  0.678E-04 0.000E+00

     total cpu time spent up to now is        5.6 secs

     per-process dynamical memory:     5.5 Mb

     Self-consistent Calculation

     iteration #  1     ecut=    12.00 Ry     beta=0.30
     Davidson diagonalization with overlap
     ethr =  1.00E-06,  avg # of iterations =  4.7

     negative rho (up, down):  0.362E-04 0.000E+00

     total cpu time spent up to now is        5.9 secs

     total energy              =     -29.22180465 Ry
     Harris-Foulkes estimate   =     -29.22213929 Ry
     estimated scf accuracy    <       0.00071598 Ry

     iteration #  2     ecut=    12.00 Ry     beta=0.30
     Davidson diagonalization with overlap
     ethr =  3.41E-06,  avg # of iterations =  3.3

     negative rho (up, down):  0.330E-04 0.000E+00

     total cpu time spent up to now is        6.0 secs

     total energy              =     -29.22122625 Ry
     Harris-Foulkes estimate   =     -29.22287806 Ry
     estimated scf accuracy    <       0.01958516 Ry

     iteration #  3     ecut=    12.00 Ry     beta=0.30
     Davidson diagonalization with overlap
     ethr =  3.41E-06,  avg # of iterations =  3.0

     negative rho (up, down):  0.241E-04 0.000E+00

     total cpu time spent up to now is        6.1 secs

     total energy              =     -29.22206614 Ry
     Harris-Foulkes estimate   =     -29.22211515 Ry
     estimated scf accuracy    <       0.00035197 Ry

     iteration #  4     ecut=    12.00 Ry     beta=0.30
     Davidson diagonalization with overlap
     ethr =  1.68E-06,  avg # of iterations =  1.0

     negative rho (up, down):  0.180E-05 0.000E+00

     total cpu time spent up to now is        6.2 secs

     total energy              =     -29.22209047 Ry
     Harris-Foulkes estimate   =     -29.22208928 Ry
     estimated scf accuracy    <       0.00000995 Ry

     iteration #  5     ecut=    12.00 Ry     beta=0.30
     Davidson diagonalization with overlap
     ethr =  4.74E-08,  avg # of iterations =  2.7

     negative rho (up, down):  0.270E-07 0.000E+00

     total cpu time spent up to now is        6.4 secs

     total energy              =     -29.22209225 Ry
     Harris-Foulkes estimate   =     -29.22209243 Ry
     estimated scf accuracy    <       0.00000640 Ry

     iteration #  6     ecut=    12.00 Ry     beta=0.30
     Davidson diagonalization with overlap
     ethr =  3.05E-08,  avg # of iterations =  1.0

     total cpu time spent up to now is        6.5 secs

     total energy              =     -29.22209247 Ry
     Harris-Foulkes estimate   =     -29.22209245 Ry
     estimated scf accuracy    <       0.00000083 Ry

     iteration #  7     ecut=    12.00 Ry     beta=0.30
     Davidson diagonalization with overlap
     ethr =  3.93E-09,  avg # of iterations =  2.7

     total cpu time spent up to now is        6.6 secs

     total energy              =     -29.22209255 Ry
     Harris-Foulkes estimate   =     -29.22209266 Ry
     estimated scf accuracy    <       0.00000080 Ry

     iteration #  8     ecut=    12.00 Ry     beta=0.30
     Davidson diagonalization with overlap
     ethr =  3.79E-09,  avg # of iterations =  1.7

     total cpu time spent up to now is        6.7 secs

     total energy              =     -29.22209262 Ry
     Harris-Foulkes estimate   =     -29.22209264 Ry
     estimated scf accuracy    <       0.00000016 Ry

     iteration #  9     ecut=    12.00 Ry     beta=0.30
     Davidson diagonalization with overlap
     ethr =  7.65E-10,  avg # of iterations =  1.3

     total cpu time spent up to now is        6.8 secs

     End of self-consistent calculation

          k = 0.1250 0.1250 0.0000 (   822 PWs)   bands (ev):

    -7.1703  -6.6577  -5.8095  -4.6189  -3.1572  -1.4297   0.5631   1.8402
     4.4560   5.4286   5.8835   6.2901   6.6492   7.1699   7.5373

          k = 0.1250 0.3750 0.0000 (   847 PWs)   bands (ev):

    -4.8467  -4.3419  -3.5092  -2.3404  -0.9085  -0.3470   0.1190   0.8223
     0.9480   2.0768   2.7641   3.5141   3.9378   5.1917   6.5987

          k = 0.3750 0.3750 0.0000 (   860 PWs)   bands (ev):

    -2.5796  -2.0873  -1.2702  -0.1232   1.2378   1.2776   1.6907   2.4478
     2.6269   2.7751   3.3988   3.5335   4.0409   4.8921   4.9802

     the Fermi energy is     3.4525 ev

!    total energy              =     -29.22209261 Ry
     Harris-Foulkes estimate   =     -29.22209263 Ry
     estimated scf accuracy    <       0.00000002 Ry

     The total energy is the sum of the following terms:

     one-electron contribution =    -188.45977201 Ry
     hartree contribution      =     100.95100117 Ry
     xc contribution           =     -11.24205944 Ry
     ewald contribution        =      69.53166065 Ry
     smearing contrib. (-TS)   =      -0.00292298 Ry

     convergence has been achieved in   9 iterations

     Forces acting on atoms (Ry/au):

     atom    1 type  1   force =     0.00000000    0.00000000    0.00475769
     atom    2 type  1   force =     0.00000000    0.00000000    0.00118516
     atom    3 type  1   force =     0.00000000    0.00000000    0.00232562
     atom    4 type  1   force =     0.00000000    0.00000000    0.00000000
     atom    5 type  1   force =     0.00000000    0.00000000   -0.00232562
     atom    6 type  1   force =     0.00000000    0.00000000   -0.00118516
     atom    7 type  1   force =     0.00000000    0.00000000   -0.00475769

     Total force =     0.007674     Total SCF correction =     0.000234

     number of scf cycles    =   6
     number of bfgs steps    =   5

     energy   old            =     -29.2214029358 Ry
     energy   new            =     -29.2220926120 Ry

     CASE: energy  _new < energy  _old

     new trust radius        =       0.0772081383 bohr
     new conv_thr            =       0.0000000476 Ry


ATOMIC_POSITIONS (alat)
Al       0.500000000   0.500000000  -2.081478814
Al       0.000000000   0.000000000  -1.394848324
Al       0.500000000   0.500000000  -0.699780717
Al       0.000000000   0.000000000   0.000000000
Al       0.500000000   0.500000000   0.699780717
Al       0.000000000   0.000000000   1.394848324
Al       0.500000000   0.500000000   2.081478814



     Writing output data file pwscf.save
     Check: negative starting charge=   -0.000291
     NEW-OLD atomic charge density approx. for the potential
     Check: negative starting charge=   -0.000294

     negative rho (up, down):  0.143E-03 0.000E+00

     total cpu time spent up to now is        6.9 secs

     per-process dynamical memory:     5.5 Mb

     Self-consistent Calculation

     iteration #  1     ecut=    12.00 Ry     beta=0.30
     Davidson diagonalization with overlap
     ethr =  1.00E-06,  avg # of iterations =  5.7

     negative rho (up, down):  0.817E-04 0.000E+00

     total cpu time spent up to now is        7.2 secs

     total energy              =     -29.22219586 Ry
     Harris-Foulkes estimate   =     -29.22290847 Ry
     estimated scf accuracy    <       0.00152832 Ry

     iteration #  2     ecut=    12.00 Ry     beta=0.30
     Davidson diagonalization with overlap
     ethr =  7.28E-06,  avg # of iterations =  3.3

     negative rho (up, down):  0.755E-04 0.000E+00

     total cpu time spent up to now is        7.3 secs

     total energy              =     -29.22096611 Ry
     Harris-Foulkes estimate   =     -29.22450445 Ry
     estimated scf accuracy    <       0.04191922 Ry

     iteration #  3     ecut=    12.00 Ry     beta=0.30
     Davidson diagonalization with overlap
     ethr =  7.28E-06,  avg # of iterations =  3.0

     negative rho (up, down):  0.569E-04 0.000E+00

     total cpu time spent up to now is        7.4 secs

     total energy              =     -29.22276046 Ry
     Harris-Foulkes estimate   =     -29.22285170 Ry
     estimated scf accuracy    <       0.00062151 Ry

     iteration #  4     ecut=    12.00 Ry     beta=0.30
     Davidson diagonalization with overlap
     ethr =  2.96E-06,  avg # of iterations =  1.3

     negative rho (up, down):  0.552E-05 0.000E+00

     total cpu time spent up to now is        7.5 secs

     total energy              =     -29.22280667 Ry
     Harris-Foulkes estimate   =     -29.22280429 Ry
     estimated scf accuracy    <       0.00002086 Ry

     iteration #  5     ecut=    12.00 Ry     beta=0.30
     Davidson diagonalization with overlap
     ethr =  9.93E-08,  avg # of iterations =  3.0

     negative rho (up, down):  0.694E-06 0.000E+00

     total cpu time spent up to now is        7.7 secs

     total energy              =     -29.22280970 Ry
     Harris-Foulkes estimate   =     -29.22280980 Ry
     estimated scf accuracy    <       0.00000758 Ry

     iteration #  6     ecut=    12.00 Ry     beta=0.30
     Davidson diagonalization with overlap
     ethr =  3.61E-08,  avg # of iterations =  1.3

     total cpu time spent up to now is        7.8 secs

     total energy              =     -29.22281032 Ry
     Harris-Foulkes estimate   =     -29.22281010 Ry
     estimated scf accuracy    <       0.00000043 Ry

     iteration #  7     ecut=    12.00 Ry     beta=0.30
     Davidson diagonalization with overlap
     ethr =  2.07E-09,  avg # of iterations =  2.7

     total cpu time spent up to now is        7.9 secs

     total energy              =     -29.22281035 Ry
     Harris-Foulkes estimate   =     -29.22281045 Ry
     estimated scf accuracy    <       0.00000074 Ry

     iteration #  8     ecut=    12.00 Ry     beta=0.30
     Davidson diagonalization with overlap
     ethr =  2.07E-09,  avg # of iterations =  2.3

     total cpu time spent up to now is        8.0 secs

     total energy              =     -29.22281043 Ry
     Harris-Foulkes estimate   =     -29.22281045 Ry
     estimated scf accuracy    <       0.00000021 Ry

     iteration #  9     ecut=    12.00 Ry     beta=0.30
     Davidson diagonalization with overlap
     ethr =  9.96E-10,  avg # of iterations =  1.0

     total cpu time spent up to now is        8.1 secs

     End of self-consistent calculation

          k = 0.1250 0.1250 0.0000 (   822 PWs)   bands (ev):

    -7.2313  -6.7207  -5.8518  -4.6454  -3.1686  -1.4176   0.5911   1.8702
     4.5079   5.3643   5.8148   6.3260   6.6014   7.1273   7.5636

          k = 0.1250 0.3750 0.0000 (   847 PWs)   bands (ev):

    -4.9076  -4.4050  -3.5521  -2.3682  -0.9227  -0.4084   0.0544   0.8332
     0.9049   2.0473   2.7878   3.5026   3.9642   5.2025   6.6473

          k = 0.3750 0.3750 0.0000 (   860 PWs)   bands (ev):

    -2.6410  -2.1513  -1.3142  -0.1525   1.1749   1.2606   1.6239   2.4009
     2.5646   2.7460   3.3746   3.5006   4.0010   4.8719   5.0055

     the Fermi energy is     3.4397 ev

!    total energy              =     -29.22281042 Ry
     Harris-Foulkes estimate   =     -29.22281044 Ry
     estimated scf accuracy    <       0.00000002 Ry

     The total energy is the sum of the following terms:

     one-electron contribution =    -192.62405147 Ry
     hartree contribution      =     103.02100134 Ry
     xc contribution           =     -11.26269365 Ry
     ewald contribution        =      71.64598850 Ry
     smearing contrib. (-TS)   =      -0.00305513 Ry

     convergence has been achieved in   9 iterations

     Forces acting on atoms (Ry/au):

     atom    1 type  1   force =     0.00000000    0.00000000    0.00225519
     atom    2 type  1   force =     0.00000000    0.00000000    0.00084511
     atom    3 type  1   force =     0.00000000    0.00000000    0.00296322
     atom    4 type  1   force =     0.00000000    0.00000000    0.00000000
     atom    5 type  1   force =     0.00000000    0.00000000   -0.00296322
     atom    6 type  1   force =     0.00000000    0.00000000   -0.00084511
     atom    7 type  1   force =     0.00000000    0.00000000   -0.00225519

     Total force =     0.005400     Total SCF correction =     0.000224

     number of scf cycles    =   7
     number of bfgs steps    =   6

     energy   old            =     -29.2220926120 Ry
     energy   new            =     -29.2228104221 Ry

     CASE: energy  _new < energy  _old

     new trust radius        =       0.0535298040 bohr
     new conv_thr            =       0.0000000296 Ry


ATOMIC_POSITIONS (alat)
Al       0.500000000   0.500000000  -2.071385136
Al       0.000000000   0.000000000  -1.387591935
Al       0.500000000   0.500000000  -0.693672272
Al       0.000000000   0.000000000   0.000000000
Al       0.500000000   0.500000000   0.693672272
Al       0.000000000   0.000000000   1.387591935
Al       0.500000000   0.500000000   2.071385136



     Writing output data file pwscf.save
     Check: negative starting charge=   -0.000294
     NEW-OLD atomic charge density approx. for the potential
     Check: negative starting charge=   -0.000296

     negative rho (up, down):  0.844E-04 0.000E+00

     total cpu time spent up to now is        8.2 secs

     per-process dynamical memory:     5.5 Mb

     Self-consistent Calculation

     iteration #  1     ecut=    12.00 Ry     beta=0.30
     Davidson diagonalization with overlap
     ethr =  1.00E-06,  avg # of iterations =  4.7

     negative rho (up, down):  0.460E-04 0.000E+00

     total cpu time spent up to now is        8.5 secs

     total energy              =     -29.22258816 Ry
     Harris-Foulkes estimate   =     -29.22323674 Ry
     estimated scf accuracy    <       0.00135256 Ry

     iteration #  2     ecut=    12.00 Ry     beta=0.30
     Davidson diagonalization with overlap
     ethr =  6.44E-06,  avg # of iterations =  3.3

     negative rho (up, down):  0.425E-04 0.000E+00

     total cpu time spent up to now is        8.6 secs

     total energy              =     -29.22117648 Ry
     Harris-Foulkes estimate   =     -29.22520714 Ry
     estimated scf accuracy    <       0.05100898 Ry

     iteration #  3     ecut=    12.00 Ry     beta=0.30
     Davidson diagonalization with overlap
     ethr =  6.44E-06,  avg # of iterations =  3.3

     negative rho (up, down):  0.139E-04 0.000E+00

     total cpu time spent up to now is        8.7 secs

     total energy              =     -29.22317310 Ry
     Harris-Foulkes estimate   =     -29.22317429 Ry
     estimated scf accuracy    <       0.00002658 Ry

     iteration #  4     ecut=    12.00 Ry     beta=0.30
     Davidson diagonalization with overlap
     ethr =  1.27E-07,  avg # of iterations =  2.3

     negative rho (up, down):  0.315E-05 0.000E+00

     total cpu time spent up to now is        8.9 secs

     total energy              =     -29.22317589 Ry
     Harris-Foulkes estimate   =     -29.22317621 Ry
     estimated scf accuracy    <       0.00000785 Ry

     iteration #  5     ecut=    12.00 Ry     beta=0.30
     Davidson diagonalization with overlap
     ethr =  3.74E-08,  avg # of iterations =  1.7

     negative rho (up, down):  0.130E-07 0.000E+00

     total cpu time spent up to now is        9.0 secs

     total energy              =     -29.22317727 Ry
     Harris-Foulkes estimate   =     -29.22317683 Ry
     estimated scf accuracy    <       0.00000130 Ry

     iteration #  6     ecut=    12.00 Ry     beta=0.30
     Davidson diagonalization with overlap
     ethr =  6.19E-09,  avg # of iterations =  1.7

     total cpu time spent up to now is        9.1 secs

     total energy              =     -29.22317750 Ry
     Harris-Foulkes estimate   =     -29.22317736 Ry
     estimated scf accuracy    <       0.00000017 Ry

     iteration #  7     ecut=    12.00 Ry     beta=0.30
     Davidson diagonalization with overlap
     ethr =  8.08E-10,  avg # of iterations =  1.7

     total cpu time spent up to now is        9.2 secs

     End of self-consistent calculation

          k = 0.1250 0.1250 0.0000 (   822 PWs)   bands (ev):

    -7.2849  -6.7514  -5.8885  -4.6666  -3.1712  -1.4137   0.6089   1.8899
     4.5466   5.3079   5.7821   6.3507   6.5593   7.0853   7.5879

          k = 0.1250 0.3750 0.0000 (   847 PWs)   bands (ev):

    -4.9610  -4.4358  -3.5893  -2.3903  -0.9283  -0.4613   0.0228   0.8364
     0.8675   2.0244   2.8039   3.4994   3.9804   5.2046   6.6839

          k = 0.3750 0.3750 0.0000 (   860 PWs)   bands (ev):

    -2.6949  -2.1825  -1.3522  -0.1758   1.1198   1.2531   1.5918   2.3599
     2.5109   2.7272   3.3644   3.4745   3.9668   4.8665   5.0227

     the Fermi energy is     3.4326 ev

!    total energy              =     -29.22317751 Ry
     Harris-Foulkes estimate   =     -29.22317751 Ry
     estimated scf accuracy    <       0.00000002 Ry

     The total energy is the sum of the following terms:

     one-electron contribution =    -195.95611380 Ry
     hartree contribution      =     104.67880775 Ry
     xc contribution           =     -11.27711903 Ry
     ewald contribution        =      73.33467149 Ry
     smearing contrib. (-TS)   =      -0.00342393 Ry

     convergence has been achieved in   7 iterations

     Forces acting on atoms (Ry/au):

     atom    1 type  1   force =     0.00000000    0.00000000    0.00078094
     atom    2 type  1   force =     0.00000000    0.00000000    0.00103651
     atom    3 type  1   force =     0.00000000    0.00000000    0.00105743
     atom    4 type  1   force =     0.00000000    0.00000000    0.00000000
     atom    5 type  1   force =     0.00000000    0.00000000   -0.00105743
     atom    6 type  1   force =     0.00000000    0.00000000   -0.00103651
     atom    7 type  1   force =     0.00000000    0.00000000   -0.00078094

     Total force =     0.002367     Total SCF correction =     0.000162

     number of scf cycles    =   8
     number of bfgs steps    =   7

     energy   old            =     -29.2228104221 Ry
     energy   new            =     -29.2231775127 Ry

     CASE: energy  _new < energy  _old

     new trust radius        =       0.0532270378 bohr
     new conv_thr            =       0.0000000106 Ry


ATOMIC_POSITIONS (alat)
Al       0.500000000   0.500000000  -2.061348548
Al       0.000000000   0.000000000  -1.379571622
Al       0.500000000   0.500000000  -0.688982787
Al       0.000000000   0.000000000   0.000000000
Al       0.500000000   0.500000000   0.688982787
Al       0.000000000   0.000000000   1.379571622
Al       0.500000000   0.500000000   2.061348548



     Writing output data file pwscf.save
     Check: negative starting charge=   -0.000296
     NEW-OLD atomic charge density approx. for the potential
     Check: negative starting charge=   -0.000294

     negative rho (up, down):  0.821E-04 0.000E+00

     total cpu time spent up to now is        9.3 secs

     per-process dynamical memory:     5.5 Mb

     Self-consistent Calculation

     iteration #  1     ecut=    12.00 Ry     beta=0.30
     Davidson diagonalization with overlap
     ethr =  1.00E-06,  avg # of iterations =  5.0

     negative rho (up, down):  0.461E-04 0.000E+00

     total cpu time spent up to now is        9.5 secs

     total energy              =     -29.22281066 Ry
     Harris-Foulkes estimate   =     -29.22333179 Ry
     estimated scf accuracy    <       0.00109535 Ry

     iteration #  2     ecut=    12.00 Ry     beta=0.30
     Davidson diagonalization with overlap
     ethr =  5.22E-06,  avg # of iterations =  3.3

     negative rho (up, down):  0.430E-04 0.000E+00

     total cpu time spent up to now is        9.7 secs

     total energy              =     -29.22172728 Ry
     Harris-Foulkes estimate   =     -29.22485727 Ry
     estimated scf accuracy    <       0.03883527 Ry

     iteration #  3     ecut=    12.00 Ry     beta=0.30
     Davidson diagonalization with overlap
     ethr =  5.22E-06,  avg # of iterations =  3.0

     negative rho (up, down):  0.290E-04 0.000E+00

     total cpu time spent up to now is        9.8 secs

     total energy              =     -29.22327734 Ry
     Harris-Foulkes estimate   =     -29.22328432 Ry
     estimated scf accuracy    <       0.00004641 Ry

     iteration #  4     ecut=    12.00 Ry     beta=0.30
     Davidson diagonalization with overlap
     ethr =  2.21E-07,  avg # of iterations =  2.3

     negative rho (up, down):  0.169E-05 0.000E+00

     total cpu time spent up to now is        9.9 secs

     total energy              =     -29.22328391 Ry
     Harris-Foulkes estimate   =     -29.22328295 Ry
     estimated scf accuracy    <       0.00001303 Ry

     iteration #  5     ecut=    12.00 Ry     beta=0.30
     Davidson diagonalization with overlap
     ethr =  6.20E-08,  avg # of iterations =  1.7

     total cpu time spent up to now is       10.0 secs

     total energy              =     -29.22328510 Ry
     Harris-Foulkes estimate   =     -29.22328478 Ry
     estimated scf accuracy    <       0.00000098 Ry

     iteration #  6     ecut=    12.00 Ry     beta=0.30
     Davidson diagonalization with overlap
     ethr =  4.65E-09,  avg # of iterations =  2.7

     total cpu time spent up to now is       10.2 secs

     total energy              =     -29.22328526 Ry
     Harris-Foulkes estimate   =     -29.22328533 Ry
     estimated scf accuracy    <       0.00000036 Ry

     iteration #  7     ecut=    12.00 Ry     beta=0.30
     Davidson diagonalization with overlap
     ethr =  1.71E-09,  avg # of iterations =  1.7

     total cpu time spent up to now is       10.3 secs

     total energy              =     -29.22328532 Ry
     Harris-Foulkes estimate   =     -29.22328531 Ry
     estimated scf accuracy    <       0.00000002 Ry

     iteration #  8     ecut=    12.00 Ry     beta=0.30
     Davidson diagonalization with overlap
     ethr =  7.64E-11,  avg # of iterations =  2.7

     total cpu time spent up to now is       10.4 secs

     End of self-consistent calculation

          k = 0.1250 0.1250 0.0000 (   822 PWs)   bands (ev):

    -7.3380  -6.7874  -5.9180  -4.6851  -3.1774  -1.4083   0.6267   1.9102
     4.5843   5.2517   5.7433   6.3734   6.5259   7.0449   7.6106

          k = 0.1250 0.3750 0.0000 (   847 PWs)   bands (ev):

    -5.0140  -4.4721  -3.6191  -2.4098  -0.9377  -0.5137  -0.0142   0.8375
     0.8411   2.0042   2.8193   3.4930   3.9978   5.2080   6.7188

          k = 0.3750 0.3750 0.0000 (   860 PWs)   bands (ev):

    -2.7484  -2.2192  -1.3828  -0.1964   1.0650   1.2419   1.5538   2.3272
     2.4574   2.7051   3.3540   3.4515   3.9389   4.8551   5.0395

     the Fermi energy is     3.4250 ev

!    total energy              =     -29.22328532 Ry
     Harris-Foulkes estimate   =     -29.22328532 Ry
     estimated scf accuracy    <          6.0E-09 Ry

     The total energy is the sum of the following terms:

     one-electron contribution =    -199.30769941 Ry
     hartree contribution      =     106.34456822 Ry
     xc contribution           =     -11.29155202 Ry
     ewald contribution        =      75.03515250 Ry
     smearing contrib. (-TS)   =      -0.00375461 Ry

     convergence has been achieved in   8 iterations

     Forces acting on atoms (Ry/au):

     atom    1 type  1   force =     0.00000000    0.00000000   -0.00044218
     atom    2 type  1   force =     0.00000000    0.00000000    0.00030172
     atom    3 type  1   force =     0.00000000    0.00000000    0.00020034
     atom    4 type  1   force =     0.00000000    0.00000000    0.00000000
     atom    5 type  1   force =     0.00000000    0.00000000   -0.00020034
     atom    6 type  1   force =     0.00000000    0.00000000   -0.00030172
     atom    7 type  1   force =     0.00000000    0.00000000    0.00044218

     Total force =     0.000808     Total SCF correction =     0.000131
     SCF correction compared to forces is large: reduce conv_thr to get better values

     number of scf cycles    =   9
     number of bfgs steps    =   8

     energy   old            =     -29.2231775127 Ry
     energy   new            =     -29.2232853172 Ry

     CASE: energy  _new < energy  _old

     new trust radius        =       0.0040741473 bohr
     new conv_thr            =       0.0000000100 Ry


ATOMIC_POSITIONS (alat)
Al       0.500000000   0.500000000  -2.062116776
Al       0.000000000   0.000000000  -1.379725703
Al       0.500000000   0.500000000  -0.689044579
Al       0.000000000   0.000000000   0.000000000
Al       0.500000000   0.500000000   0.689044579
Al       0.000000000   0.000000000   1.379725703
Al       0.500000000   0.500000000   2.062116776



     Writing output data file pwscf.save
     Check: negative starting charge=   -0.000294
     NEW-OLD atomic charge density approx. for the potential
     Check: negative starting charge=   -0.000294

     total cpu time spent up to now is       10.5 secs

     per-process dynamical memory:     5.5 Mb

     Self-consistent Calculation

     iteration #  1     ecut=    12.00 Ry     beta=0.30
     Davidson diagonalization with overlap
     ethr =  1.00E-06,  avg # of iterations =  2.0

     Threshold (ethr) on eigenvalues was too large:
     Diagonalizing with lowered threshold

     Davidson diagonalization with overlap
     ethr =  1.14E-08,  avg # of iterations =  2.7

     total cpu time spent up to now is       10.7 secs

     total energy              =     -29.22328610 Ry
     Harris-Foulkes estimate   =     -29.22328776 Ry
     estimated scf accuracy    <       0.00000364 Ry

     iteration #  2     ecut=    12.00 Ry     beta=0.30
     Davidson diagonalization with overlap
     ethr =  1.73E-08,  avg # of iterations =  3.0

     total cpu time spent up to now is       10.8 secs

     total energy              =     -29.22328387 Ry
     Harris-Foulkes estimate   =     -29.22329046 Ry
     estimated scf accuracy    <       0.00007173 Ry

     iteration #  3     ecut=    12.00 Ry     beta=0.30
     Davidson diagonalization with overlap
     ethr =  1.73E-08,  avg # of iterations =  2.7

     total cpu time spent up to now is       11.0 secs

     total energy              =     -29.22328725 Ry
     Harris-Foulkes estimate   =     -29.22328755 Ry
     estimated scf accuracy    <       0.00000228 Ry

     iteration #  4     ecut=    12.00 Ry     beta=0.30
     Davidson diagonalization with overlap
     ethr =  1.09E-08,  avg # of iterations =  1.3

     total cpu time spent up to now is       11.1 secs

     total energy              =     -29.22328741 Ry
     Harris-Foulkes estimate   =     -29.22328741 Ry
     estimated scf accuracy    <       0.00000006 Ry

     iteration #  5     ecut=    12.00 Ry     beta=0.30
     Davidson diagonalization with overlap
     ethr =  3.02E-10,  avg # of iterations =  2.3

     total cpu time spent up to now is       11.2 secs

     total energy              =     -29.22328742 Ry
     Harris-Foulkes estimate   =     -29.22328742 Ry
     estimated scf accuracy    <       0.00000001 Ry

     iteration #  6     ecut=    12.00 Ry     beta=0.30
     Davidson diagonalization with overlap
     ethr =  5.52E-11,  avg # of iterations =  2.0

     total cpu time spent up to now is       11.3 secs

     End of self-consistent calculation

          k = 0.1250 0.1250 0.0000 (   822 PWs)   bands (ev):

    -7.3357  -6.7840  -5.9146  -4.6833  -3.1773  -1.4092   0.6251   1.9085
     4.5820   5.2541   5.7471   6.3720   6.5299   7.0462   7.6095

          k = 0.1250 0.3750 0.0000 (   847 PWs)   bands (ev):

    -5.0117  -4.4687  -3.6158  -2.4079  -0.9374  -0.5113  -0.0107   0.8403
     0.8410   2.0062   2.8179   3.4932   3.9963   5.2070   6.7167

          k = 0.3750 0.3750 0.0000 (   860 PWs)   bands (ev):

    -2.7461  -2.2157  -1.3793  -0.1944   1.0674   1.2423   1.5575   2.3310
     2.4599   2.7068   3.3548   3.4538   3.9419   4.8556   5.0381

     the Fermi energy is     3.4256 ev

!    total energy              =     -29.22328743 Ry
     Harris-Foulkes estimate   =     -29.22328743 Ry
     estimated scf accuracy    <          1.6E-09 Ry

     The total energy is the sum of the following terms:

     one-electron contribution =    -199.13374530 Ry
     hartree contribution      =     106.25891437 Ry
     xc contribution           =     -11.29044954 Ry
     ewald contribution        =      74.94571239 Ry
     smearing contrib. (-TS)   =      -0.00371934 Ry

     convergence has been achieved in   6 iterations

     Forces acting on atoms (Ry/au):

     atom    1 type  1   force =     0.00000000    0.00000000   -0.00019543
     atom    2 type  1   force =     0.00000000    0.00000000    0.00014471
     atom    3 type  1   force =     0.00000000    0.00000000    0.00019377
     atom    4 type  1   force =     0.00000000    0.00000000    0.00000000
     atom    5 type  1   force =     0.00000000    0.00000000   -0.00019377
     atom    6 type  1   force =     0.00000000    0.00000000   -0.00014471
     atom    7 type  1   force =     0.00000000    0.00000000    0.00019543

     Total force =     0.000440     Total SCF correction =     0.000049
     SCF correction compared to forces is large: reduce conv_thr to get better values

     bfgs converged in  10 scf cycles and   9 bfgs steps
     (criteria: energy < 0.10E-03, force < 0.10E-02)

     End of BFGS Geometry Optimization

     Final energy   =     -29.2232874251 Ry
Begin final coordinates

ATOMIC_POSITIONS (alat)
Al       0.500000000   0.500000000  -2.062116776
Al       0.000000000   0.000000000  -1.379725703
Al       0.500000000   0.500000000  -0.689044579
Al       0.000000000   0.000000000   0.000000000
Al       0.500000000   0.500000000   0.689044579
Al       0.000000000   0.000000000   1.379725703
Al       0.500000000   0.500000000   2.062116776
End final coordinates



     Writing output data file pwscf.save

     init_run     :      0.08s CPU      0.08s WALL (       1 calls)
     electrons    :      8.74s CPU     10.18s WALL (      10 calls)
     update_pot   :      0.12s CPU      0.28s WALL (       9 calls)
     forces       :      0.22s CPU      0.23s WALL (      10 calls)

     Called by init_run:
     wfcinit      :      0.06s CPU      0.06s WALL (       1 calls)
     potinit      :      0.00s CPU      0.01s WALL (       1 calls)

     Called by electrons:
     c_bands      :      7.17s CPU      7.37s WALL (      80 calls)
     sum_band     :      1.02s CPU      1.02s WALL (      80 calls)
     v_of_rho     :      0.17s CPU      0.20s WALL (      88 calls)
     mix_rho      :      0.10s CPU      0.10s WALL (      80 calls)

     Called by c_bands:
     init_us_2    :      0.14s CPU      0.18s WALL (     513 calls)
     cegterg      :      6.97s CPU      7.14s WALL (     240 calls)

     Called by *egterg:
     h_psi        :      4.65s CPU      4.73s WALL (     836 calls)
     g_psi        :      0.15s CPU      0.13s WALL (     593 calls)
     cdiaghg      :      0.45s CPU      0.48s WALL (     800 calls)

     Called by h_psi:
     add_vuspsi   :      0.42s CPU      0.47s WALL (     836 calls)

     General routines
     calbec       :      0.56s CPU      0.54s WALL (     866 calls)
     fft          :      0.12s CPU      0.11s WALL (     375 calls)
     fftw         :      3.82s CPU      3.86s WALL (   21580 calls)
     davcio       :      0.02s CPU      0.04s WALL (     753 calls)

     Parallel routines

     PWSCF        :     9.54s CPU        11.37s WALL


   This run was terminated on:  10:33:21  18Jul2014            

=------------------------------------------------------------------------------=
   JOB DONE.
=------------------------------------------------------------------------------=
